# vtk DataFile Version 5.1
vtk output
ASCII
DATASET UNSTRUCTURED_GRID
POINTS 2395 float
-1.1017 2.80567 -1.77636e-15 -3.22757 1.19076 -1.77636e-15 -1.4193 2.58287 -1.77636e-15 
-1.71935 2.33334 -1.77636e-15 -2.00173 2.06605 -1.77636e-15 -2.24362 1.76028 -1.77636e-15 
-2.43841 1.41848 -1.77636e-15 -2.57871 1.05153 -1.77636e-15 -2.65244 0.669701 -1.77636e-15 
-2.70356 0.285457 -1.77636e-15 -2.69339 -0.100539 -1.77636e-15 -2.64825 -0.484369 -1.77636e-15 
-2.59366 -0.865701 0 -2.4967 -1.23967 0 -2.30904 -1.57833 0 
-2.09997 -1.90448 -0.022946 -1.86036 -2.20843 0 -1.58973 -2.48605 -0.00316079 
-1.27819 -2.71702 0 -0.917932 -2.85963 -0.0011824 -0.532323 -2.88481 0 
-0.152864 -2.79146 0 0.211464 -2.65736 0 0.574269 -2.51725 0 
0.923076 -2.35008 0 1.24906 -2.1714 0 1.5579 -1.96152 0 
1.85022 -1.72852 0 2.07461 -1.41807 0 2.28167 -1.08997 0 
2.43651 -0.735821 0 2.54668 -0.368085 -1.77636e-15 2.53215 0.0198821 -1.77636e-15 
2.47507 0.405146 -1.77636e-15 2.37252 0.780348 -1.77636e-15 2.22025 1.137 0 
2.02908 1.47681 -1.77636e-15 1.84601 1.82106 -1.77636e-15 1.62813 2.14398 0 
1.34185 2.40978 -1.77636e-15 1.02148 2.63248 -1.77636e-15 0.683979 2.82588 -1.77636e-15 
0.340091 3.00607 -1.77636e-15 -0.0213854 3.14081 -1.77636e-15 -0.404534 3.12933 -1.77636e-15 
-0.766752 2.99991 -1.77636e-15 -3.06824 1.53848 -1.77636e-15 -2.86796 1.86975 -1.77636e-15 
-2.63618 2.18441 -1.77636e-15 -2.39235 2.48402 -1.77636e-15 -2.14267 2.78435 -1.77636e-15 
-1.88372 3.07642 -1.77636e-15 -1.59568 3.33062 -1.77636e-15 -1.26631 3.51903 -1.77636e-15 
-0.899762 3.62546 -1.77636e-15 -0.522619 3.66394 -1.77636e-15 -0.141959 3.66391 -1.77636e-15 
0.239225 3.6342 -1.77636e-15 0.616045 3.56079 -1.77636e-15 0.979239 3.43673 -1.77636e-15 
1.32992 3.27684 -1.77636e-15 1.67871 3.10908 -1.77636e-15 2.03066 2.94346 -1.77636e-15 
2.3718 2.75949 -1.77636e-15 2.65047 2.49479 -1.77636e-15 2.84075 2.16199 -0.00308309 
2.98659 1.8077 -1.77636e-15 3.09919 1.44068 -1.77636e-15 3.16658 1.062 0 
3.15728 0.675778 -1.77636e-15 3.10391 0.292456 -1.77636e-15 3.03737 -0.0891434 -1.77636e-15 
2.98242 -0.472951 0 2.90142 -0.851662 0 2.76798 -1.21354 0 
2.57982 -1.54831 0 2.35373 -1.85718 0 2.10916 -2.15041 0 
1.84589 -2.42726 0 1.56131 -2.68303 0 1.26605 -2.92812 0 
0.961921 -3.16373 0 0.647173 -3.38437 0 0.31404 -3.58012 0 
-0.0346562 -3.74969 0 -0.412338 -3.83343 0 -0.765329 -3.69734 0 
-1.11602 -3.54227 -0.00109284 -1.47015 -3.39409 -0.00904529 -1.81532 -3.227 -0.00582111 
-2.12797 -3.00615 0 -2.41211 -2.74973 0 -2.66031 -2.45759 0 
-2.86604 -2.13277 0 -3.03822 -1.78835 0 -3.17281 -1.42712 0 
-3.29829 -1.06223 0 -3.40846 -0.692143 0 -3.46643 -0.3107 -1.77636e-15 
-3.46916 0.0749936 -1.77636e-15 -3.42404 0.454895 -1.77636e-15 -3.34343 0.827397 -1.77636e-15 
-1.38462 -2.6647 -1.39934 -1.35016 -2.75824 -1.04194 -1.56338 -2.53581 -1.2222 
0.196378 3.24549 -0.83214 0.0874669 3.21347 -0.362594 0.410557 3.08736 -0.475379 
-0.706256 -2.97864 -0.253629 -0.350785 -2.93801 -0.259404 2.31848 1.09553 -0.357462 
2.18088 1.43611 -0.282217 -2.07284 -1.69556 -1.93502 -2.16408 -1.69342 -1.54194 
-2.25995 -1.42488 -1.85385 -1.95765 -1.93703 -1.7427 -2.75358 0.0510474 -0.361733 
-2.72719 -0.368559 -0.397546 0.0311293 -2.81721 -0.329791 0.59638 2.95081 -0.281772 
0.891906 2.79577 -0.325017 0.713233 2.94032 -0.602694 -2.78829 0.595902 -1.08863 
-2.77446 0.505265 -0.718481 -2.74864 0.87844 -0.828211 -2.80033 0.252292 -1.01157 
0.39292 -2.64908 -0.274639 0.700645 -2.50026 -0.234439 -0.925892 3.16743 -1.01539 
-0.75501 3.27723 -1.2646 -0.991207 3.15515 -1.39848 -1.624 -2.52847 -0.930526 
-0.0921984 -2.92977 -0.829888 0.17518 -2.82402 -0.906901 0.0437168 -2.85805 -0.631923 
0.284181 -2.74225 -0.562362 2.03245 1.67572 -0.181195 1.90738 1.98574 -0.281979 
-2.58504 1.62871 -0.953193 -2.39818 2.00534 -1.05392 -2.54068 1.76568 -1.33534 
-0.881391 -3.01599 -0.815288 -1.14786 -2.91579 -0.672347 -1.05729 -2.94441 -0.982217 
-2.47645 1.80577 -0.668225 -2.58665 -1.09268 -0.621957 -2.48445 -1.3207 -0.343586 
-2.61646 -0.983395 -0.295814 2.43151 0.714444 -0.493438 2.37299 1.01105 -0.835499 
-2.45255 -1.38902 -0.657188 2.55221 -0.0373093 -0.315826 2.54378 -0.311086 -0.422472 
-2.67803 -0.673663 -0.271801 -2.17978 1.46626 -3.2446 -2.45346 1.35825 -2.8347 
-2.14614 1.75648 -2.97102 2.34021 1.24933 -1.65068 2.23404 1.59339 -1.70736 
2.23945 1.46075 -1.44409 -2.6879 -0.744978 -0.56495 2.52259 0.242432 -0.232532 
2.4786 -0.600508 -0.368012 0.746826 -2.50116 -0.547022 0.929647 -2.40415 -0.839765 
0.971226 -2.36529 -0.41973 -0.571054 3.21796 -0.364237 0.547328 -2.62503 -0.79143 
0.405371 -2.72499 -1.20557 0.106209 -2.8578 -1.23773 -1.16473 0.0799258 -5.17887 
-1.32609 0.151616 -4.98908 -1.16594 0.369527 -5.17342 0.307856 -2.71496 -1.95384 
0.179433 -2.81297 -1.59173 -0.036851 -2.80845 -1.96521 2.3377 1.42969 -1.93603 
-1.62561 -2.41603 -1.5124 -1.39761 -2.56973 -1.76713 2.43197 1.18086 -2.01 
2.42255 1.01177 -1.74756 1.5074 1.27464 -5.52877 1.7567 1.04545 -5.5739 
1.50272 1.08587 -5.75379 1.92224 -1.55161 -0.424049 2.16206 -1.22833 -0.368203 
1.64327 0.873077 -5.87156 2.46592 0.568795 -0.882053 2.41763 0.75654 -1.20445 
2.01162 2.0121 -1.10718 2.13629 1.73043 -1.21515 2.04813 1.97792 -1.41819 
-0.783325 3.19479 -0.66349 -1.08399 3.0369 -0.692211 -2.03214 -1.51816 -2.47614 
-1.80417 -1.84181 -2.52824 -1.94587 -1.75716 -2.26274 2.12617 1.75692 -0.886838 
2.51793 -0.441347 -0.791722 -1.88038 -1.56202 -2.82144 -1.88237 -1.93401 -2.06048 
-0.565311 3.32035 -0.949465 -2.74902 -0.485928 -0.790069 -2.74718 -0.553375 -1.16038 
-2.66026 -0.881152 -0.963228 -0.240174 -2.96313 -0.579985 -2.71838 1.20052 -1.36449 
-2.71918 1.13847 -1.08654 -2.6537 1.43991 -1.17153 -1.29367 -0.121932 -5.0132 
2.47571 0.494524 -0.259075 -2.70574 1.23398 -1.71749 -2.76805 0.931064 -1.49843 
-2.74466 0.926818 -1.86883 2.41088 -0.786048 -1.03172 2.47479 -0.36748 -1.26056 
0.684439 -2.23399 -3.75394 0.704207 -2.25886 -3.36298 0.393857 -2.25081 -3.55625 
-1.79698 -2.18762 -1.60314 -1.74832 -2.14006 -1.95184 -1.62153 -2.34504 -1.7892 
-0.906987 -2.73729 -2.09442 -0.591347 -2.75131 -2.21891 -0.667174 -2.86745 -1.87392 
-0.34608 -3.00836 -0.945282 -2.00154 -1.98031 -1.39447 -1.80229 -2.2794 -1.21379 
-2.06667 -1.98697 -0.986181 -1.40562 -2.73171 -0.372214 -0.253906 3.32784 -0.645991 
1.54078 -1.93499 -2.36328 1.71559 -1.75418 -2.1592 1.4862 -1.98982 -2.06739 
1.7765 -1.68237 -2.52938 -1.51404 2.71236 -0.457554 -1.22247 2.87722 -0.3336 
-1.34374 2.87164 -0.692232 -1.57684 2.73204 -0.842308 2.34409 -0.933887 -0.385067 
2.43454 -0.7595 -0.660614 -0.367645 -2.84814 -2.00294 -0.592887 -3.04679 -0.757628 
-0.642668 1.58539 -4.95974 -0.723988 1.79214 -4.73461 -0.383262 1.78011 -4.96732 
-0.0434593 3.29296 -2.00906 0.197624 3.26725 -1.73009 0.417185 3.1757 -2.03497 
-1.6806 -2.49868 -0.574511 -1.93802 -2.19748 -0.387028 -1.86083 -2.286 -0.779378 
-1.71002 -2.44773 -0.274206 -1.42942 -2.7253 -0.713427 -0.90881 3.05255 -0.279369 
-2.31163 -1.62944 -0.905226 -2.49233 -1.28277 -0.95565 -2.34459 -1.49962 -1.23917 
2.51205 0.319841 -0.568251 1.23997 2.54705 -3.85786 1.13506 2.7433 -3.47014 
1.48685 2.48935 -3.62431 1.0117 -2.19967 -3.61322 0.922632 2.66164 -3.87094 
0.788925 2.87254 -3.47838 0.661314 2.98261 -3.1416 1.0146 2.89767 -3.13055 
-2.55803 -0.967693 -1.57919 -2.5312 -1.13425 -1.27759 -2.65104 -0.845793 -1.31348 
-2.06025 -2.03618 -0.646195 0.465819 3.16501 -1.63731 -0.542693 -3.01682 -0.476528 
-0.816973 -3.02145 -0.526844 2.24849 -0.992271 -2.48739 2.38345 -0.625235 -2.36379 
2.27843 -0.879671 -2.05528 2.52017 0.221071 -1.76133 2.48275 0.408795 -1.30479 
2.49072 0.0353715 -1.32473 2.05441 -1.395 -0.816244 2.29139 -1.05135 -0.730152 
2.38784 -0.531061 -1.94423 -1.7735 2.55621 -0.61685 -2.73989 0.779435 -0.40087 
-2.76107 0.39263 -0.351184 -2.39101 -1.31262 -1.55104 0.746353 3.04748 -2.83922 
-2.18181 -1.85942 -0.379265 -0.875413 3.11157 -2.327 -1.17104 2.93415 -2.22975 
-1.08574 3.05498 -1.96688 -2.6979 -0.61423 -1.56488 -2.77534 -0.22894 -1.67318 
-2.62793 -0.50862 -2.07491 -2.48764 1.62359 -0.279409 -2.62477 1.43196 -0.577004 
-1.05539 -2.91642 -0.303718 -1.07135 2.93004 -2.5478 2.29307 -1.14 -3.2647 
2.10333 -1.45122 -3.34794 2.25517 -1.36156 -3.67003 0.805875 3.04104 -1.75704 
1.07308 2.89434 -1.52827 1.12949 2.91744 -1.9011 1.47701 2.67567 -1.66145 
1.88203 -1.54688 -1.92584 2.06548 -1.32096 -1.67945 1.85004 -1.61123 -1.52343 
2.06214 -1.36382 -1.24257 -2.80583 0.640985 -1.40374 -2.76711 0.889575 -1.20658 
-1.67584 0.416662 -4.55519 -1.56028 0.0537692 -4.74671 -1.82621 0.0693937 -4.39565 
-2.3415 -1.6027 -0.50106 -1.41086 0.476304 -4.86455 2.34197 -0.775216 -1.67857 
2.21579 -1.0496 -1.76119 2.09586 -1.23126 -2.12091 2.01575 -1.44749 -2.98156 
-2.24502 -1.1743 -2.39716 -2.42676 -0.769062 -2.43726 -2.2391 -0.962031 -2.74839 
-2.12919 2.21624 -0.485117 -2.31607 2.07266 -0.733843 -2.30811 1.95607 -0.351037 
-1.55882 -0.949627 -4.27997 -1.73968 -0.60055 -4.27336 -1.5301 -0.645059 -4.57828 
-1.77201 -0.899117 -3.97382 -1.46586 -2.38912 -2.14476 -2.20615 -1.82917 -0.683271 
-2.65653 0.575535 -2.56991 -2.61686 0.928578 -2.71391 -2.5584 0.502872 -2.94957 
-2.67898 0.897726 -2.40813 -1.60569 2.46746 -2.60759 -1.68941 2.58952 -2.09037 
-1.37313 2.74214 -2.36843 -1.95239 2.31436 -2.2907 -1.23087 2.73415 -2.78252 
-1.33996 2.5418 -3.06182 -2.63404 1.50061 -1.54889 -0.160477 3.37059 -1.05507 
-1.76576 2.61524 -1.63456 -1.96061 2.43703 -1.85442 -1.44545 2.81032 -1.89726 
-2.19537 2.20936 -1.95841 -2.09791 2.35519 -1.57543 -2.36605 2.07375 -1.55984 
-1.97041 2.46812 -1.25823 -1.02797 -2.77674 -1.83963 -1.17502 -2.61121 -2.13409 
1.23843 -2.19338 -0.594532 1.48926 -1.99072 -0.736326 1.45924 -2.01678 -0.356037 
1.24687 -2.18428 -0.965166 -0.912118 1.5237 -4.79627 2.54601 -0.0608157 -0.697682 
-1.28258 2.95964 -1.11051 -1.09365 -2.87952 -1.27973 -0.217284 3.24934 -0.254952 
1.9266 -1.49325 -2.24193 -1.17547 2.57492 -3.32831 -0.910715 2.71041 -3.52061 
-1.06975 2.48332 -3.66278 -0.809716 -2.93518 -1.52344 -0.746574 -3.01347 -1.12805 
[...]
POINT_DATA 2395
FIELD FieldData 1
Nodal_area 3 2395 float
0 0 0 0 0 0 0 0 0 
0 0 0 0 0 0 0 0 0 
0 0 0 0 0 0 0 0 0 
0 0 0 0 0 0 0 0 0 
0 0 0 0 0 0 0 0 0 
0 0 0 0 0 0 0 0 0 
0 0 0 0 0 0 0 0 0 
0 0 0 0 0 0 0 0 0 
0 0 0 0 0 0 0 0 0 
0 0 0 0 0 0 0 0 0 
0 0 0 0 0 0 0 0 0 
0 0 0 0 0 0 0 0 0 
0 0 0 0 0 0 0 0 0 
0 0 0 0 0 0 0 0 0 
0 0 0 0 0 0 0 0 0 
0 0 0 0 0 0 0 0 0 
0 0 0 0 0 0 0 0 0 
0 0 0 0 0 0 0 0 0 
0 0 0 0 0 0 0 0 0 
0 0 0 0 0 0 0 0 0 
0 0 0 0 0 0 0 0 0 
0 0 0 0 0 0 0 0 0 
0 0 0 0 0 0 0 0 0 
0 0 0 0 0 0 0 0 0 
0 0 0 0 0 0 0 0 0 
0 0 0 0 0 0 0 0 0 
0 0 0 0 0 0 0 0 0 
0 0 0 0 0 0 0 0 0 
0 0 0 0 0 0 0 0 0 
0 0 0 0 0 0 0 0 0 
0 0 0 0 0 0 0 0 0 
0 0 0 0 0 0 0 0 0 
0 0 0 0 0 0 0 0 0 
0 0 0 0 0 0 0 0 0 
-0.0628472 -0.0792223 -0.0159363 -0.073513 -0.100164 -0.0132904 -0.0562668 -0.0575066 -0.0106733 
0.0587424 0.162555 0.0193045 0.021655 0.0756148 0.0116794 0.0375586 0.0737853 0.0115408 
-0.00179265 -0.0395832 0.00888032 0.011597 -0.0464128 0.00945182 0.080378 0.0234614 0.00784703 
0.0552571 0.021032 0.0128187 -0.0859228 -0.0547177 -0.0215081 -0.11564 -0.0732895 -0.0246124 
-0.0869653 -0.0508323 -0.0210125 -0.08202 -0.0587753 -0.0189401 -0.0539827 -0.00236028 0.00346796 
-0.0732086 -0.00789519 0.00600693 0.0249576 -0.0618989 0.0104294 0.0158592 0.0286743 0.00483731 
0.0340115 0.0592593 0.0096407 0.0516003 0.0925746 0.0143183 -0.100453 0.0077846 0.00639881 
-0.128334 0.00644791 0.00674035 -0.142801 0.0183898 0.00716111 -0.114959 0.00156602 0.00840193 
0.0171332 -0.0370462 0.00523625 0.018166 -0.0350972 0.00333118 -0.0592099 0.110468 0.0112754 
-0.0348237 0.0780823 0.00510997 -0.0569602 0.0956634 0.00223196 -0.0795718 -0.0791294 -0.010445 
0.0203638 -0.0571487 0.00298703 0.0492361 -0.106903 0.00561104 0.0252017 -0.0600953 0.00701957 
0.0394569 -0.0828424 0.00942515 0.0302105 0.0150281 0.0112415 0.0602642 0.0430034 0.0168289 
-0.11487 0.0466115 0.00717455 -0.129167 0.0849682 0.00834937 -0.112705 0.0520772 0.00150454 
-0.0161107 -0.0684538 -0.00183551 -0.0586014 -0.112332 0.00306637 -0.0316407 -0.0710017 -0.00831806 
-0.112858 0.0601081 0.0176514 -0.110142 -0.0418016 8.97933e-05 -0.0454987 -0.0203944 0.000808412 
-0.0501741 -0.0152065 0.0020866 0.0978596 0.0220066 0.00250427 0.173255 0.0443455 0.00120196 
-0.07484 -0.0372723 -0.00180045 0.057452 0.00367242 -0.000885544 0.0573768 -0.00599516 -0.00111158 
-0.0312489 -0.00524271 0.00232753 -0.108355 0.0688276 -0.0692448 -0.194553 0.0853499 -0.0776708 
-0.0938789 0.0691728 -0.0511995 0.0807179 0.024968 0.0147076 0.0785476 0.0282638 0.0138035 
0.0917487 0.0298082 0.00809756 -0.114553 -0.0251951 0.0054723 0.0304899 0.00438012 5.27124e-05 
0.0537894 -0.0157098 0.00115779 0.0377973 -0.067767 0.00399371 0.0845512 -0.132819 0.00391727 
0.0391434 -0.0628138 0.0026239 -0.0187247 0.0680666 0.0148404 0.0648079 -0.119472 0.00734917 
0.0568155 -0.11479 0.00167776 0.0292105 -0.0728718 -0.00189251 -0.0535968 -0.00201381 -0.0460131 
-0.0585482 0.00151911 -0.0517496 -0.0842181 0.016382 -0.0776754 0.0290997 -0.0920799 -0.017818 
0.0522155 -0.152334 -0.0157936 0.0261194 -0.118 -0.0267195 0.0767638 0.0263837 0.0143022 
-0.0687955 -0.0661668 -0.0154266 -0.0824082 -0.105682 -0.0301114 0.0954075 0.0263436 0.0157528 
0.0732036 0.0181288 0.0134457 0.0437355 0.0711239 -0.0572759 0.0571472 0.0681234 -0.0539694 
0.0315842 0.0526993 -0.0482952 0.0605937 -0.050608 0.00127727 0.063124 -0.0436751 0.0022563 
0.0483012 0.0694287 -0.0668901 0.145242 0.0260686 -0.00198451 0.129644 0.0283783 0.00374079 
0.100444 0.0582714 0.00755868 0.093344 0.0352567 0.0033881 0.0794843 0.0374252 0.00912524 
-0.0461834 0.0992698 0.0166855 -0.0665013 0.112152 0.0180154 -0.0932972 -0.0558003 -0.029992 
-0.0738642 -0.0530267 -0.0272974 -0.0780845 -0.0517079 -0.0228869 0.124662 0.0555537 0.00274187 
0.150819 -0.0255736 -0.00944732 -0.131023 -0.088703 -0.0525563 -0.0580747 -0.0422856 -0.0159783 
-0.0343902 0.133329 0.0148866 -0.126674 -0.0195404 0.006826 -0.117824 -0.0258988 -0.00167314 
-0.145075 -0.0478255 -0.002947 0.0304849 -0.104892 0.0120189 -0.0901247 0.0201316 0.000902551 
-0.0723202 0.013914 0.00332455 -0.0963648 0.0282223 0.00217028 -0.0744542 -0.00909873 -0.0653159 
0.0319184 0.00627351 0.000207133 -0.105143 0.0242373 -0.0057945 -0.0998901 0.0155587 -0.0025397 
-0.0992155 0.0151194 -0.00880292 0.149796 -0.0533671 -0.0121294 0.140623 -0.0190221 -0.0145502 
-0.00573039 -0.128752 0.002125 0.0131397 -0.106907 -0.0143088 -0.00442221 -0.107243 -0.0221593 
-0.0771601 -0.0617609 -0.0172843 -0.0780765 -0.0649069 -0.0222705 -0.0570111 -0.0525758 -0.0162237 
-0.0216393 -0.0740689 -0.0277865 -0.0128723 -0.105065 -0.0429667 -0.0157323 -0.110613 -0.0314356 
0.0164229 -0.0998004 -0.00292848 -0.0947846 -0.0692089 -0.0184116 -0.114399 -0.0955749 -0.0197824 
-0.116254 -0.0842365 -0.0156395 -0.0485473 -0.0659011 0.00508775 0.00772034 0.157142 0.0240436 
0.0588049 -0.0608923 -0.00160385 0.080187 -0.070814 0.000129367 0.08018 -0.0882782 -0.00113396 
0.0918066 -0.0815677 0.00179262 -0.0396374 0.0560841 0.0113666 -0.0315391 0.0504464 0.0104605 
-0.052515 0.0797127 0.0125062 -0.0718313 0.101658 0.011876 0.0484949 -0.0246742 0.00233272 
0.0882214 -0.0333408 -0.000174374 0.00272228 -0.0859693 -0.0257203 0.00507301 -0.0954349 0.000475341 
-0.0435281 0.0497007 -0.0618939 -0.0519286 0.0618357 -0.0706551 -0.0480945 0.0801324 -0.0884312 
0.0244533 0.14797 -0.0186067 0.0306326 0.0996176 -0.00598753 0.0471161 0.165433 -0.00594691 
-0.0832241 -0.0821964 0.000452794 -0.0595955 -0.0484015 0.000693052 -0.0993306 -0.0824106 -0.00859885 
-0.0268644 -0.0267197 0.00190147 -0.0592061 -0.0737582 -0.00230777 -0.0312891 0.0596962 0.0126742 
-0.111101 -0.0653351 -0.010139 -0.112512 -0.0535229 -0.00811717 -0.102104 -0.0581872 -0.0160889 
0.142146 0.0204758 -0.00196593 0.045336 0.0900143 -0.0398972 0.0554495 0.123337 -0.0449931 
0.0662653 0.10694 -0.0431967 0.0247049 -0.132237 0.00870346 0.0379482 0.123594 -0.0602868 
0.0351894 0.139039 -0.0480948 0.019405 0.0997533 -0.0259525 0.048907 0.132261 -0.032812 
-0.0881722 -0.039427 -0.0163057 -0.104497 -0.0493119 -0.0130768 -0.0816264 -0.0294876 -0.00826643 
-0.0661583 -0.0489277 -0.00217806 0.0433757 0.107015 0.00267289 0.00769752 -0.0663333 0.00989067 
-0.0162248 -0.084646 0.00933713 0.146087 -0.0732417 0.0125841 0.125668 -0.0420463 0.0102819 
0.125672 -0.0518675 -0.000160899 0.191836 -0.00777492 0.0168501 0.152453 0.01463 0.00416362 
0.125626 -0.00338234 -0.0037612 0.130582 -0.0990056 -0.000493568 0.111302 -0.0653182 0.000163482 
0.126566 -0.0333116 0.00123348 -0.0558721 0.0735531 0.0154937 -0.070475 0.00683547 0.00349564 
-0.0626528 0.00107255 0.00317013 -0.102095 -0.0560658 -0.0205906 0.0285995 0.115953 -0.0194386 
-0.0375062 -0.0255276 0.000673494 -0.0585782 0.107682 -0.0230769 -0.0549094 0.0756966 -0.0182866 
-0.0618225 0.0935666 -0.0163089 -0.140686 -0.0414017 -0.0205888 -0.130596 -0.0239826 -0.0185393 
-0.185596 -0.0543863 -0.0468171 -0.0599057 0.0282422 0.0127288 -0.110652 0.0386539 0.0146 
-0.021008 -0.0535223 0.00804279 -0.0605408 0.0820234 -0.019837 0.149216 -0.0822285 0.030096 
0.0844251 -0.0693203 0.0225436 0.0930667 -0.0605332 0.022077 0.0561064 0.144055 0.0115142 
0.0726001 0.139002 0.0218196 0.0745326 0.148198 0.0155036 0.0853333 0.130977 0.0218096 
0.097187 -0.0749361 -0.00256987 0.11598 -0.0784078 -0.00744349 0.105557 -0.0884643 -0.00477166 
0.117406 -0.0864773 -0.00672028 -0.0888262 0.00843005 0.00104148 -0.0890156 0.0122928 0.00397094 
-0.101439 0.0189066 -0.0817078 -0.12479 -0.00484096 -0.10412 -0.11561 -0.00622427 -0.0836686 
-0.0548722 -0.0306993 -0.00072835 -0.107521 0.0236669 -0.0921378 0.101871 -0.0332689 -0.00850236 
0.084082 -0.0427519 -0.0063527 0.139251 -0.083946 -0.000256778 0.10899 -0.0870688 0.0188357 
-0.123024 -0.0636321 -0.037528 -0.123188 -0.0493313 -0.0386029 -0.126075 -0.0577723 -0.0425748 
-0.0460857 0.0442774 0.0114434 -0.0707298 0.0547667 0.012769 -0.0491172 0.033413 0.0121235 
-0.0897894 -0.0557684 -0.0582261 -0.100146 -0.0423557 -0.0616227 -0.0897198 -0.0405963 -0.0678679 
-0.133622 -0.0741607 -0.0714413 -0.098822 -0.105642 -0.0400501 -0.0644851 -0.0417618 -0.00302777 
-0.127711 -0.00230109 -0.0302252 -0.143979 0.0224077 -0.0422488 -0.162839 -0.0051809 -0.0504296 
-0.0859232 0.00983232 -0.0165307 -0.138374 0.160869 -0.0634667 -0.0980559 0.128322 -0.0358987 
-0.0893885 0.113723 -0.0336161 -0.109476 0.125123 -0.0478446 -0.0866658 0.100504 -0.0318745 
-0.0946854 0.0971401 -0.0420554 -0.109974 0.0357459 -0.00298047 0.0223647 0.171635 0.0118768 
-0.0960692 0.128036 -0.0121185 -0.0662265 0.0815963 -0.0173962 -0.0971557 0.133869 -0.0242927 
-0.10525 0.100668 -0.0274972 -0.0825872 0.0901329 -0.00660145 -0.131376 0.0972023 -0.00648293 
-0.0798956 0.0972128 0.00200654 -0.0434714 -0.0996869 -0.0291936 -0.0565202 -0.0989716 -0.0363384 
0.0709782 -0.0978301 0.00108741 0.0703104 -0.0815097 -0.000614444 0.0449899 -0.0529428 0.000349072 
0.0876801 -0.115785 0.000943156 -0.0769947 0.064899 -0.0841451 0.121197 0.00243685 -0.00574861 
-0.108252 0.165207 0.0104247 -0.0461544 -0.0971809 -0.0171189 0.000271125 0.0429079 0.00858825 
0.0756266 -0.0564004 0.00149838 -0.0566891 0.0590464 -0.0311139 -0.0503187 0.0787141 -0.0433282 
-0.0674499 0.0726007 -0.0505467 -0.0282815 -0.153008 -0.0324746 -0.0156263 -0.132803 -0.0168344 
-0.0776175 0.106169 -0.043207 -0.0546745 0.0476876 -0.0326141 -0.06799 0.05515 -0.0460927 
-0.0531229 0.041633 -0.0360839 0.0285741 -0.0565842 0.00554153 -0.108425 -0.0490922 -0.0300193 
-0.115203 0.117841 -0.0605669 -0.112689 0.112003 -0.0596569 -0.150918 0.0437111 -0.0336433 
-0.0703344 0.0112982 -0.00995486 -0.0777477 0.0171658 -0.00922021 -0.151551 0.055283 -0.0197904 
-0.0838533 0.0619108 -0.0598633 0.0836566 -0.102982 0.00166599 0.0969073 -0.144225 0.00348046 
-0.129879 0.0821764 -0.0283353 -0.110983 0.0947215 -0.0450761 -0.0943516 0.0438718 -0.0063209 
0.00910029 -0.120761 -0.0161171 0.0156963 -0.155115 -0.0292072 0.0198718 -0.0769717 -0.00868508 
0.125787 0.00993106 -0.00625117 0.04761 0.0750249 0.0134426 0.0901948 0.036538 0.0146041 
0.122611 0.0484909 0.0206069 0.0589384 0.0218028 0.00636893 0.0691165 -0.127274 -0.000752338 
0.0540088 -0.0917214 0.00378856 0.0236639 -0.0769795 -0.00245778 -0.131143 -0.00589859 0.000540803 
-0.102372 0.00180087 -0.0066015 -0.0832118 -0.00580665 -0.0103137 -0.131634 0.0635081 -0.088341 
-0.111561 0.0450708 -0.0783395 -0.133093 0.027823 -0.0782246 -0.103086 0.0209222 -0.067816 
-0.0731221 0.00281323 0.00329384 -0.127291 0.0888618 -0.0905158 0.0672287 0.115589 0.0180793 
0.0818409 0.0501098 0.0140733 -0.136573 -0.00343621 -0.0715794 -0.139518 -0.00390022 -0.0601235 
-0.159803 -0.030061 -0.0539458 -0.158887 -0.0220452 -0.0440099 0.147275 0.0487476 0.00866383 
0.114808 0.058172 0.0209219 -0.129068 -0.0403268 -0.0440672 -0.121564 -0.0324959 -0.0378135 
-0.143908 -0.0565137 -0.0565353 -0.0962341 -0.0382798 -0.0342077 -0.119544 -0.0566938 -0.0461819 
-0.112017 -0.107816 -0.0608046 -0.11116 -0.10185 -0.0637162 -0.0800527 -0.115201 -0.067805 
-0.0544249 0.075514 -0.0747974 -0.061892 0.0576097 -0.0637628 -0.0428962 0.0885989 -0.0853537 
-0.0712107 0.052594 -0.0639238 -0.0520503 0.0418839 -0.0439374 0.0565082 0.0604335 0.0142634 
-0.0982374 -0.0154094 -0.00345966 -0.144248 -0.00970146 0.00918693 -0.0841604 0.115749 0.00371151 
-0.0455545 0.0522956 0.0108251 -0.0677286 0.0860472 0.00878459 -0.0890529 0.0893912 0.0112344 
-0.089435 0.0632448 -0.0696139 -0.0450016 -0.0519901 -0.0257813 -0.0443524 -0.0439286 -0.0315727 
-0.0432523 -0.0404308 -0.0272881 -0.140925 -0.091511 -0.0634753 -0.129572 -0.0671766 -0.0566296 
-0.11985 -0.08603 -0.0657031 -0.0806956 -0.0976878 -0.0659266 -0.0724351 -0.0626323 -0.0560556 
-0.053073 -0.0532013 -0.0465207 -0.0745907 -0.0499429 -0.0636578 -0.0708547 -0.0582452 -0.0617736 
-0.0369321 0.0968392 -0.099661 -0.028184 0.0920143 -0.0839886 -0.0678445 -0.113646 -0.0566065 
-0.0895526 -0.108519 -0.0758111 -0.0763415 0.0384081 -0.0608644 -0.0545832 0.0349502 -0.0424837 
-0.0715641 0.0464387 -0.0599255 0.0260951 0.155307 -0.00782527 -0.0181007 0.137855 0.00143512 
-0.117268 0.0226758 -0.0447541 -0.0558546 0.0536234 -0.0348764 -0.0599023 0.0484317 -0.0409703 
-0.0181003 0.0641918 -0.0374219 -0.0339951 0.0982189 -0.0453545 -0.0398493 0.0826199 -0.0569233 
-0.0771869 0.0611765 -0.0580559 -0.080409 0.0692549 -0.05837 -0.0594814 0.0760894 -0.0612886 
-0.0394401 -0.0941351 -0.0184099 -0.0396681 -0.103498 -0.00420128 -0.0200013 -0.0745016 -0.0155841 
-0.0486882 -0.0981212 -0.00789686 -0.0245019 -0.128106 -0.0208264 -0.0207856 -0.0822103 -0.0240055 
0.146027 0.0464553 -0.00044054 0.0581158 0.155636 0.00445548 0.0827443 0.170436 0.0183179 
-0.0810759 -0.0408272 -0.0190591 -0.0833345 -0.033808 -0.0187174 -0.0169834 -0.126358 -0.0412269 
-0.0281663 -0.107587 0.00592948 -0.0874451 -0.0262957 -0.0275073 -0.122789 -0.0269876 -0.0340119 
-0.106964 -0.0371357 -0.0347935 -0.0919281 -0.00538297 0.00746797 -0.119187 0.00848406 -0.0101576 
-0.134202 0.00576827 -0.0226057 -0.117867 -0.0186055 -0.0264112 0.0865367 -0.0868578 -0.00112411 
0.0775297 -0.0854059 -0.000361839 0.13773 0.0457442 0.0155175 0.124839 0.029324 0.0122079 
-0.116228 -0.00162773 0.007831 -0.0697278 0.0609597 -0.045089 -0.134506 -0.00558774 -0.0235167 
-0.039829 0.0638009 -0.055434 -0.0343725 0.0941474 -0.0665293 -0.0278021 -0.0670668 -0.0370103 
-0.0510942 -0.138618 -0.0776752 -0.0205118 -0.0873412 -0.0463672 -0.0664254 -0.0356104 -0.0183869 
-0.0858046 -0.0501136 -0.0240704 -0.0876823 -0.0105766 -0.0207343 0.0514841 0.0965011 0.0121249 
0.0449986 0.0815948 0.0106296 -0.0369409 0.110233 -0.0887595 -0.041203 -0.0751049 -0.0182116 
-0.0708629 0.104432 -0.00581012 -0.0670136 0.0955038 -0.00401 0.106208 -0.0957152 -0.00303146 
-0.0341131 0.0113108 0.00645751 -0.0771407 0.0152743 0.00567066 -0.104558 0.0239118 0.00524125 
0.0640057 -0.0648148 4.60051e-05 0.0579978 -0.0524064 -0.000294208 -0.0593495 -0.0899488 -0.0529789 
-0.000712197 0.111189 -0.0211483 -0.0246608 0.0897993 -0.0173833 -0.0140355 0.159641 -0.019892 
-0.0719557 -0.0397267 -0.0240707 0.0219375 -0.0218423 -4.8633e-05 -0.0159146 0.0937337 -0.0620876 
-0.0192757 0.0250839 0.00699759 0.047781 -0.0489513 -0.000858817 -0.0782517 -0.104151 -0.0613226 
-0.0770112 0.0521611 -0.0801573 -0.0455256 0.0245694 -0.0432949 -0.067864 0.046262 -0.0633685 
0.131229 -0.0668312 -0.0123598 0.0929378 -0.0565127 -0.00496742 -0.0638425 0.0335015 -0.0539604 
-0.0672058 -0.0922843 -0.0140224 -0.0850366 -0.0955022 -0.0297118 -0.0594372 -0.0728935 -0.0161152 
0.0100512 0.090818 -0.0628964 0.0102172 0.0851628 -0.0527827 0.0233302 0.0846451 -0.0531052 
-0.0424876 0.096491 -0.0143698 -0.0384572 0.0955313 -0.00552522 -0.0366514 0.0617768 -0.00504267 
-0.0327389 -0.120294 -0.0526569 -0.0242156 -0.0721632 -0.0389037 -0.0399193 -0.0987194 -0.0462978 
-0.0564279 -0.108764 -0.0616609 -0.0817327 -0.044616 -0.0295702 0.0929255 -0.0418915 0.0138687 
0.090592 -0.0564996 0.0137685 0.107872 -0.00403767 0.0149757 0.100834 -0.0183072 0.0131444 
0.167423 -0.0305133 0.0269124 0.132381 -0.0350266 0.0143982 -0.139602 0.0731065 -0.0425835 
0.149069 0.0212301 0.0167693 0.105727 0.00760362 0.0150451 0.111707 0.0212844 0.0160842 
0.0137299 0.0602661 -0.0345131 -0.0806656 -0.0811496 -0.0334048 -0.049548 -0.0769392 -0.0194789 
-0.0511069 -0.100274 -0.0353081 -0.0907787 -0.125343 -0.0527118 -0.0452941 -0.116076 -0.0409145 
-0.0937929 -0.126419 -0.0285664 -0.0983415 -0.0969775 -0.0435487 0.0314789 -0.133622 -0.0406514 
0.0370155 -0.100587 -0.0221082 0.0249531 -0.107493 -0.0334066 0.0133413 -0.133669 -0.047318 
0.0346965 -0.126275 -0.0323873 0.0521754 0.154515 0.00118149 0.0122905 -0.0988515 -0.0261812 
0.0193727 -0.077895 -0.0140376 0.0295123 -0.0951679 -0.00845539 0.0426827 -0.0925701 0.00388748 
0.0358562 -0.0673597 -0.00356388 0.0828488 -0.110808 0.00582627 0.138578 0.101472 -0.00352926 
0.0995409 0.110513 -0.012466 0.120123 0.119397 0.00706855 0.109771 0.09732 -0.0197571 
0.0592854 0.109484 0.0182147 0.0889725 0.135049 0.0144759 0.129963 0.127836 0.0239912 
-0.0442422 -0.0705452 -0.0049358 0.0429014 -0.084777 -0.00827204 0.0720896 -0.113048 -0.00343079 
0.0382146 0.0565903 -0.0118029 0.0329264 0.0670722 -0.013981 0.0470049 0.080596 -0.00714502 
0.0410717 0.101365 -0.0121828 0.0625686 0.0749814 -0.0172535 -0.062756 0.0551985 -0.0901627 
-0.068715 0.0687422 -0.0986468 -0.0563468 0.0814169 -0.105416 -0.0698356 0.100746 -0.121268 
0.00781936 -0.110165 -0.0420517 0.179412 0.083281 0.00928215 0.163906 0.0254822 0.0209975 
0.12071 0.0325446 0.0117044 0.0311599 0.0236998 -0.0644341 0.0384107 0.0237379 -0.102221 
0.0158312 0.0331139 -0.126116 -0.0737832 0.0694785 0.00273336 0.163258 0.0387526 0.0116849 
0.086468 -0.0798646 -0.00141676 0.138326 0.0357147 0.0078683 0.150259 0.0510345 -0.00315085 
0.115556 0.0409242 -0.00279331 0.0139497 0.143606 -0.0708713 -0.00133078 0.141225 -0.0875973 
-0.00922233 0.151591 -0.076069 -0.104464 -0.015551 -0.0911004 -0.102383 -0.0376909 -0.0841313 
-0.0991361 -0.0214354 -0.0863012 -0.135522 -0.0353871 -0.105623 0.13124 -0.0471359 0.0305148 
0.103349 -0.038686 0.0229166 0.160393 -0.0354247 0.0231498 0.0919939 -0.00884604 0.0093079 
0.134239 0.00668497 0.0018476 0.0945426 -0.00253737 -0.00885044 0.159333 -0.0523579 0.0258134 
0.147561 -0.0538702 0.0225618 0.136609 -0.0523081 0.0249637 0.0118389 0.178866 -0.0599807 
0.125585 0.0552402 -0.00820868 0.140449 0.0579797 -0.0143414 0.149087 0.100624 -0.0226557 
0.118321 0.0554475 -0.00510208 -0.112881 0.0407321 -0.0873472 0.0675685 0.0539192 -0.0533298 
0.0508606 0.056301 -0.0582613 0.0632973 0.0650929 -0.0538859 0.154969 -0.0471247 0.0248946 
0.13708 -0.0433768 0.0199053 0.157691 -0.0161685 0.0177366 0.0105591 0.0879774 -0.082342 
0.0113982 0.0857331 -0.0781729 0.0376714 0.100871 -0.0848967 -0.0123906 0.0934881 -0.0963114 
0.092741 0.0537148 -0.0474001 0.069325 0.0430415 -0.0497503 0.0846369 0.0621167 -0.0470359 
0.0617088 -0.0947306 0.0205591 0.058482 -0.0738622 0.0183584 0.046161 -0.0864445 0.0183698 
0.0664366 -0.0904155 0.0238519 0.0467651 -0.0959277 0.020355 0.0653612 -0.096065 0.0246787 
0.0618805 0.0536525 -0.0352762 0.0700994 0.0765158 -0.0527932 0.0808862 0.0731312 -0.0425354 
0.0688938 0.090189 -0.0516662 0.104014 0.0936913 -0.0681507 0.0873937 0.0580435 -0.0457751 
0.0564443 0.0962895 -0.0649886 -0.0595153 -0.0717687 -0.0482775 -0.0757403 -0.0671064 -0.0561976 
0.0784912 0.0980489 0.0192257 0.0391568 0.0628673 0.0107418 0.0549609 0.0790467 0.0146818 
-0.095817 -0.0491122 -0.0838621 -0.0613085 -0.0397163 -0.0491676 0.0895305 -0.0246954 -0.00986035 
0.10018 -0.0188271 -0.00750239 0.116624 -0.0152662 0.0125313 -0.0972938 -0.0830828 -0.0345836 
0.019887 -0.0280102 0.00089078 -0.0636697 -0.0694482 -0.0336059 -0.0527542 -0.0858921 -0.0407738 
0.0974447 -0.131697 -0.00358044 0.0842828 -0.0956056 -0.000524178 0.0642477 -0.0863524 0.000207847 
0.0338367 0.159084 -0.0156462 -0.0263042 0.032051 0.00869428 -0.0776716 -0.0144221 -0.035293 
-0.0809449 -0.0123645 -0.0337393 -0.111531 -0.0307446 -0.0428485 -0.100927 -0.119231 -0.0765838 
-0.0816162 -0.0736754 -0.0468417 0.0182738 0.0908327 -0.00985523 0.0132948 0.116592 -0.0239084 
-0.0834773 0.0299398 -0.0680654 0.0061068 0.0830182 -0.0707823 -0.0120429 0.0926633 -0.0900814 
-0.0946102 -0.0765705 -0.0604935 -0.0207806 -0.164529 -0.0816633 -0.0916821 0.0652042 -0.0411538 
-0.0737734 -0.0483753 -0.0123158 -0.0300213 -0.111482 -0.0591109 0.0919184 0.0859044 0.0151185 
0.142069 0.108974 0.0230101 0.0577141 -0.101183 -0.00916692 -0.0752059 -0.126267 -0.0675786 
0.0474281 -0.11655 -0.0248927 -0.0915406 -0.0540665 -0.0762132 -0.112838 -0.0569132 -0.0849245 
0.0358047 0.0608349 0.0105343 0.0730023 0.151618 0.00202857 0.0265603 0.0817829 -0.068518 
0.0169325 0.140539 -0.0313804 -0.096694 0.0345192 -0.0952573 -0.0992509 0.0428279 -0.0954254 
-0.0132761 0.0516552 0.00890719 0.00687458 0.07276 -0.0122845 -0.0912162 0.00653396 -0.0815662 
0.106273 -0.0321389 0.0210728 -0.0379719 0.0962392 -0.106927 -0.0127655 0.0957525 -0.0817861 
-0.00697072 -0.145197 0.0172941 -0.00544615 -0.160181 0.0155354 0.024378 -0.114677 0.0201953 