# vtk DataFile Version 5.1
vtk output
ASCII
DATASET UNSTRUCTURED_GRID
POINTS 2395 float
-0.802074 1.8692 -1.77636e-15 -2.71221 1.09964 -1.77636e-15 -1.04394 1.77409 -1.77636e-15 
-1.28253 1.67341 -1.77636e-15 -1.49551 1.59953 -1.77636e-15 -1.69266 1.45258 -1.77636e-15 
-1.86945 1.22034 -1.77636e-15 -2.00658 1.00224 -1.77636e-15 -2.05862 0.64723 -1.77636e-15 
-2.08132 0.327014 -1.77636e-15 -2.06885 0.00538515 -1.77636e-15 -2.01328 -0.350718 -1.77636e-15 
-1.96127 -0.72285 0 -1.86069 -1.09879 0 -1.67412 -1.42579 0 
-1.47545 -1.7461 0 -1.27417 -1.9771 0 -1.029 -2.22018 0 
-0.74768 -2.37992 0 -0.448558 -2.45077 0 -0.0924335 -2.4026 0 
0.157568 -2.18136 0 0.41806 -2.03184 0 0.66834 -1.82624 0 
0.941509 -1.67203 0 1.36623 -1.63853 0 1.57923 -1.46403 0 
1.75389 -1.34581 0 1.91631 -1.17342 0 2.10762 -0.967205 0 
2.15463 -0.702463 0 2.28074 -0.422157 -1.77636e-15 2.26039 -0.129832 -1.77636e-15 
2.18672 0.135494 -1.77636e-15 2.0548 0.346324 -1.77636e-15 1.87852 0.564128 -0.115499 
1.67066 0.726225 -0.051141 1.48986 0.937035 -1.77636e-15 1.30379 1.17989 0 
1.07874 1.3806 -1.77636e-15 0.828782 1.57682 -1.77636e-15 0.600161 1.75778 -1.77636e-15 
0.32589 1.94363 -1.77636e-15 0.0560274 2.09586 -1.77636e-15 -0.241948 2.09919 -1.77636e-15 
-0.530717 1.99644 -1.77636e-15 -2.5738 1.46633 -1.77636e-15 -2.3874 1.75741 -1.77636e-15 
-2.16369 1.98173 -1.77636e-15 -1.96495 2.26056 -1.77636e-15 -1.75204 2.45267 -1.77636e-15 
-1.52913 2.62326 -1.77636e-15 -1.27779 2.8276 -1.77636e-15 -1.0126 2.89613 -1.77636e-15 
-0.664457 2.87772 -1.77636e-15 -0.343841 2.86159 -1.77636e-15 -0.0284545 2.83823 -1.77636e-15 
0.27981 2.8089 -1.77636e-15 0.617757 2.72367 -1.77636e-15 0.908686 2.56561 -1.77636e-15 
1.2472 2.38666 -1.77636e-15 1.61663 2.20112 -1.77636e-15 2.04504 2.06622 -1.77636e-15 
2.41443 1.94956 -1.77636e-15 2.64411 1.78614 -6.03567e-05 2.80701 1.54912 -0.0500793 
2.93086 1.27271 -0.0559558 3.01892 0.967909 -0.0681299 3.03965 0.649231 -0.201832 
3.02263 0.346567 -0.0316792 2.93753 0.0325247 -0.0958337 2.85883 -0.262542 -0.0267526 
2.79477 -0.572418 -0.0506606 2.70804 -0.883022 -0.0281932 2.58217 -1.15674 0 
2.41099 -1.35921 0 2.21356 -1.55331 0 2.01089 -1.77615 0 
1.84161 -1.98893 0 1.68701 -2.20143 0 1.50397 -2.41521 0 
1.29422 -2.66018 0 1.04813 -2.84608 0 0.759213 -3.08436 0 
0.443995 -3.32663 0 0.0588771 -3.49407 0 -0.295903 -3.43882 0 
-0.622306 -3.34383 0 -0.953793 -3.28105 0 -1.29651 -3.18612 0 
-1.58556 -2.98734 0 -1.86603 -2.73901 0 -2.11591 -2.44321 0 
-2.32524 -2.11354 0 -2.50519 -1.7639 0 -2.64291 -1.40529 0 
-2.75954 -1.05787 0 -2.86376 -0.712888 0 -2.92389 -0.369532 -1.77636e-15 
-2.93366 -0.0253054 -1.77636e-15 -2.87481 0.330233 -1.77636e-15 -2.8079 0.710959 -1.77636e-15 
-0.9892 -2.54485 -1.26859 -0.966253 -2.54776 -0.938172 -1.16795 -2.41596 -1.09145 
0.273194 2.18736 -0.8773 0.122627 2.15013 -0.413052 0.41706 2.01583 -0.521443 
-0.26722 -2.58091 -0.178385 0.0161326 -2.46206 -0.168775 1.96555 0.559446 -0.485362 
1.82792 0.77737 -0.366253 -1.50359 -1.69741 -1.68526 -1.61114 -1.67109 -1.31678 
-1.59298 -1.4658 -1.58332 -1.40472 -1.91469 -1.51754 -2.02201 0.0667008 -0.140523 
-1.97603 -0.3457 -0.188151 0.263557 -2.26624 -0.228716 0.499964 1.87295 -0.321269 
0.708275 1.72704 -0.355459 0.583768 1.86239 -0.629852 -2.02174 0.427544 -0.841425 
-2.01919 0.390327 -0.463134 -2.00732 0.688926 -0.571657 -2.02294 0.149999 -0.766403 
0.488406 -2.0211 -0.183216 0.723214 -1.85262 -0.153263 -0.567924 2.14712 -0.995968 
-0.404106 2.28449 -1.22869 -0.558098 2.19566 -1.3168 -1.15582 -2.40076 -0.8057 
0.0976582 -2.46375 -0.724749 0.238097 -2.37796 -0.793946 0.233573 -2.39202 -0.526785 
0.38184 -2.22503 -0.458252 1.68029 0.909619 -0.22637 1.57192 1.10171 -0.274435 
-1.90834 1.27764 -0.758835 -1.7935 1.49692 -0.925162 -1.87572 1.36061 -1.16981 
-0.476186 -2.70565 -0.725032 -0.712507 -2.66324 -0.582601 -0.673381 -2.73393 -0.878445 
-1.86075 1.37467 -0.521664 -1.86092 -1.0554 -0.403798 -1.81352 -1.22052 -0.191395 
-1.91705 -0.910644 -0.12153 2.08021 0.34011 -0.656545 1.99714 0.516525 -0.956253 
-1.76563 -1.31819 -0.46679 2.21081 -0.181662 -0.469949 2.18787 -0.406059 -0.555453 
-1.95352 -0.623298 -0.0795695 -1.43434 1.16777 -2.93264 -1.72755 1.04565 -2.58461 
-1.42285 1.33281 -2.65452 1.93593 0.764743 -1.76316 1.82973 0.948178 -1.74024 
1.83005 0.891408 -1.52336 -1.95642 -0.701064 -0.35967 2.18819 0.0308622 -0.399204 
2.26433 -0.697904 -0.418166 0.698906 -1.91142 -0.462063 0.756483 -1.85102 -0.755968 
0.878113 -1.75461 -0.348625 -0.326474 2.19164 -0.424927 0.560731 -2.0678 -0.694097 
0.371253 -2.29719 -1.07007 0.169125 -2.41173 -1.12477 -0.675342 0.222832 -4.51778 
-0.836706 0.294523 -4.32799 -0.62113 0.322207 -4.62191 0.276866 -2.34918 -1.76691 
0.129272 -2.42157 -1.43081 -0.0678411 -2.44267 -1.77827 1.94317 0.895968 -2.02693 
-1.23018 -2.29618 -1.38165 -1.04762 -2.48266 -1.62571 2.03745 0.647144 -2.1009 
2.01827 0.527185 -1.86004 1.63321 0.949196 -5.14881 1.7862 0.805162 -5.18589 
1.61006 0.888612 -5.34999 1.71511 -1.34493 -0.351153 1.94113 -1.15737 -0.325378 
1.75061 0.675818 -5.46776 2.09146 0.245252 -1.0348 2.022 0.362719 -1.3449 
1.63799 1.14558 -1.02518 1.74663 1.00094 -1.21494 1.6516 1.16719 -1.36091 
-0.460196 2.16628 -0.674656 -0.693187 2.03004 -0.663155 -1.42752 -1.52253 -2.19091 
-1.31207 -1.77725 -2.26984 -1.37662 -1.75901 -2.01297 1.75767 0.977996 -0.863321 
2.13358 -0.495896 -0.881018 -1.38828 -1.49746 -2.56304 -1.42552 -1.89557 -1.84936 
-0.308085 2.29552 -0.969462 -1.97334 -0.51379 -0.554353 -1.97429 -0.600535 -0.906557 
-1.91475 -0.889702 -0.71522 0.0553508 -2.48638 -0.480094 -1.99345 0.921779 -1.14227 
-2.00436 0.865318 -0.853227 -1.95753 1.10647 -0.972209 -0.804278 0.0209741 -4.35211 
2.14097 0.210815 -0.432765 -2.00731 0.88533 -1.53097 -2.02986 0.666977 -1.27166 
-2.01295 0.62957 -1.63079 1.99476 -0.79345 -1.08515 2.06648 -0.487117 -1.35158 
0.623524 -1.90665 -3.27535 0.572185 -1.91939 -2.92428 0.41689 -1.81151 -3.08436 
-1.3521 -2.13565 -1.41661 -1.30345 -2.08809 -1.76531 -1.27155 -2.25797 -1.64778 
-0.665036 -2.56962 -1.98711 -0.482376 -2.47245 -2.09388 -0.51008 -2.6097 -1.77121 
-0.0856912 -2.60669 -0.842661 -1.43542 -1.93079 -1.19157 -1.32593 -2.20433 -1.04325 
-1.47503 -1.91167 -0.810376 -0.88731 -2.45996 -0.315663 -0.0907511 2.29062 -0.689088 
1.24348 -1.60783 -2.06386 1.31571 -1.46138 -1.95303 1.14422 -1.62245 -1.84067 
1.42871 -1.41073 -2.25292 -1.09096 1.85351 -0.425226 -0.836289 1.94851 -0.328163 
-0.929534 1.89998 -0.654835 -1.09714 1.85052 -0.754772 2.12348 -0.921573 -0.362711 
2.19673 -0.867924 -0.672396 -0.258674 -2.56928 -1.87792 -0.23437 -2.7023 -0.662016 
-0.0178799 1.17451 -4.61712 -0.0991999 1.38126 -4.39199 0.0443188 1.31483 -4.63877 
0.155727 2.30661 -2.00948 0.39681 2.2809 -1.7305 0.547001 2.21964 -2.04173 
-1.15792 -2.35955 -0.468166 -1.34103 -2.06126 -0.29053 -1.33629 -2.19377 -0.627319 
-1.14609 -2.28168 -0.197151 -0.989816 -2.53884 -0.610725 -0.652234 2.06318 -0.279369 
-1.66511 -1.59432 -0.683312 -1.79249 -1.25008 -0.729577 -1.69495 -1.50346 -0.991454 
2.16081 0.0513686 -0.727858 1.4084 1.7289 -3.67105 1.13971 1.80002 -3.32389 
1.408 1.64466 -3.41145 0.863218 -1.90759 -3.1825 1.09106 1.84349 -3.68413 
0.978658 2.01279 -3.36846 0.851047 2.12286 -3.03167 1.01925 1.95438 -2.9843 
-1.8296 -1.03074 -1.29934 -1.8181 -1.1482 -1.02194 -1.8914 -0.908219 -1.04002 
-1.49297 -1.92401 -0.520879 0.563966 2.16001 -1.66644 -0.148091 -2.61658 -0.388861 
-0.411768 -2.71111 -0.436588 1.76805 -0.942242 -2.42707 1.90075 -0.677876 -2.37665 
1.80004 -0.762094 -1.97573 2.07286 -0.00203172 -1.87189 2.08208 0.0971378 -1.44783 
2.08046 -0.201011 -1.45416 1.80182 -1.35552 -0.722176 2.05168 -1.10089 -0.699461 
1.90909 -0.531305 -1.94527 -1.26058 1.7953 -0.51578 -2.04598 0.617621 -0.138161 
-2.03523 0.362413 -0.108738 -1.74137 -1.31646 -1.30332 0.921052 2.15073 -2.79658 
-1.55554 -1.72919 -0.271259 -0.36866 2.27071 -2.18029 -0.606895 2.10179 -2.04794 
-0.615149 2.14513 -1.85251 -1.9302 -0.729078 -1.26931 -2.00057 -0.395865 -1.38248 
-1.85615 -0.658144 -1.76196 -1.92376 1.37039 -0.279409 -1.95385 1.17124 -0.344239 
-0.595786 -2.59186 -0.229753 -0.564597 2.08918 -2.40109 1.89389 -0.968039 -3.07242 
1.7083 -1.26688 -3.13096 1.856 -1.18959 -3.47774 0.745139 2.00967 -1.7593 
1.01235 1.86298 -1.53052 1.09694 1.91882 -1.86809 1.22282 1.64917 -1.55425 
1.46029 -1.23158 -1.77153 1.60439 -1.1023 -1.57434 1.40253 -1.32226 -1.43435 
1.61044 -1.09703 -1.21321 -2.05653 0.415751 -1.16598 -2.02036 0.673876 -0.959983 
-1.07993 0.508736 -3.97504 -0.964367 0.145842 -4.16656 -1.21704 0.172872 -3.84761 
-1.68984 -1.50154 -0.350133 -0.78602 0.460846 -4.32397 1.88623 -0.790264 -1.70758 
1.74435 -0.961451 -1.73527 1.63478 -1.0126 -2.01579 1.63485 -1.22649 -2.73482 
-1.54837 -1.2365 -2.09987 -1.66353 -0.889529 -2.11175 -1.52327 -1.01362 -2.4119 
-1.57754 1.69888 -0.377009 -1.73754 1.55273 -0.616646 -1.73432 1.56191 -0.205367 
-1.13225 -0.691155 -3.67983 -1.21283 -0.429894 -3.73222 -1.03584 -0.451594 -3.95051 
-1.24516 -0.728461 -3.43268 -1.11667 -2.29103 -1.98009 -1.61451 -1.75387 -0.507466 
-1.88805 0.36219 -2.24436 -1.89095 0.615981 -2.46382 -1.78992 0.289527 -2.62402 
-1.94728 0.600478 -2.1701 -0.940845 1.82249 -2.32993 -1.09281 1.8001 -1.88548 
-0.808981 1.90978 -2.18662 -1.31218 1.6385 -2.05469 -0.637003 1.97789 -2.57398 
-0.738301 1.86441 -2.84553 -1.93561 1.15196 -1.36238 -0.00859547 2.33673 -1.08892 
-1.15803 1.88503 -1.43232 -1.35288 1.70682 -1.65217 -0.848847 2.0209 -1.69237 
-1.55413 1.60341 -1.75102 -1.4899 1.68344 -1.39374 -1.74277 1.53536 -1.41451 
-1.39802 1.73261 -1.10124 -0.786019 -2.60907 -1.73233 -0.93307 -2.44354 -2.02678 
0.93883 -1.66496 -0.542401 1.12682 -1.49976 -0.702239 1.37872 -1.65299 -0.269691 
0.972607 -1.66671 -0.880692 -0.28733 1.11282 -4.45365 2.19096 -0.217343 -0.832519 
-0.821394 2.00918 -1.0304 -0.778798 -2.71213 -1.17077 -0.0936882 2.21266 -0.320079 
1.52671 -1.20045 -2.03575 -0.580981 1.9535 -3.10249 -0.375324 2.07736 -3.31366 
-0.493861 1.89051 -3.42202 -0.573065 -2.69585 -1.42387 -0.422837 -2.74236 -1.02744 
[...]
POINT_DATA 2395
FIELD FieldData 1
Nodal_area 3 2395 float
0 0 0 0 0 0 0 0 0 
0 0 0 0 0 0 0 0 0 
0 0 0 0 0 0 0 0 0 
0 0 0 0 0 0 0 0 0 
0 0 0 0 0 0 0 0 0 
0 0 0 0 0 0 0 0 0 
0 0 0 0 0 0 0 0 0 
0 0 0 0 0 0 0 0 0 
0 0 0 0 0 0 0 0 0 
0 0 0 0 0 0 0 0 0 
0 0 0 0 0 0 0 0 0 
0 0 0 0 0 0 0 0 0 
0 0 0 0 0 0 0 0 0 
0 0 0 0 0 0 0 0 0 
0 0 0 0 0 0 0 0 0 
0 0 0 0 0 0 0 0 0 
0 0 0 0 0 0 0 0 0 
0 0 0 0 0 0 0 0 0 
0 0 0 0 0 0 0 0 0 
0 0 0 0 0 0 0 0 0 
0 0 0 0 0 0 0 0 0 
0 0 0 0 0 0 0 0 0 
0 0 0 0 0 0 0 0 0 
0 0 0 0 0 0 0 0 0 
0 0 0 0 0 0 0 0 0 
0 0 0 0 0 0 0 0 0 
0 0 0 0 0 0 0 0 0 
0 0 0 0 0 0 0 0 0 
0 0 0 0 0 0 0 0 0 
0 0 0 0 0 0 0 0 0 
0 0 0 0 0 0 0 0 0 
0 0 0 0 0 0 0 0 0 
0 0 0 0 0 0 0 0 0 
0 0 0 0 0 0 0 0 0 
-0.0523727 -0.0640926 -0.00330292 -0.0564067 -0.0841493 0.00579297 -0.0447743 -0.046062 -0.00117875 
0.065658 0.126167 0.0244711 0.0252753 0.0567569 0.012888 0.0394691 0.0494719 0.0104134 
0.0065009 -0.0332298 0.0143548 0.0216408 -0.0325364 0.00800279 0.0469698 0.0216397 0.00323302 
0.0344 0.0170411 0.00904444 -0.0757219 -0.0320277 -0.0146068 -0.0994059 -0.0482936 -0.0180954 
-0.0772262 -0.030386 -0.0159513 -0.0734887 -0.0378631 -0.00802527 -0.0450407 -0.00330988 -0.00198988 
-0.0641119 -0.00482995 0.00075486 0.0326195 -0.0380552 0.0111094 0.0151447 0.0172957 0.00352109 
0.0302621 0.0441174 0.00680574 0.0493664 0.059389 0.0116274 -0.088977 0.00312655 0.00504219 
-0.105599 -0.00127324 -0.00232363 -0.118784 0.00353043 -0.00406905 -0.102519 -0.00158024 0.00703388 
0.0198611 -0.0227104 0.00803655 0.0205671 -0.0255156 0.00480464 -0.0429984 0.0736917 0.0104253 
-0.0276776 0.0522864 0.00624234 -0.045302 0.0674908 0.00267671 -0.0580087 -0.0584419 0.00352917 
0.0227753 -0.0350871 0.00312335 0.0611044 -0.0709001 0.00313949 0.027451 -0.0359028 0.00504547 
0.0525869 -0.0525634 0.00931828 0.0178513 0.011563 0.00892646 0.0338215 0.0342119 0.0130212 
-0.0822178 0.031505 -0.000608912 -0.0742551 0.0642847 -0.00107055 -0.0773614 0.0358616 -0.00222187 
-0.00209309 -0.0586133 0.00545922 -0.039114 -0.0971631 0.0212223 -0.019615 -0.0649008 0.00764679 
-0.0605308 0.036986 -0.00353435 -0.09047 -0.0284506 -0.00146508 -0.0342435 -0.0124977 -0.00117717 
-0.0413679 -0.0100197 -0.000800343 0.0612306 0.0225721 -0.00256794 0.109233 0.0448369 -0.00477959 
-0.0601128 -0.0227975 -0.000169982 0.0405498 0.00262668 -0.00256676 0.0453311 -0.000871437 -0.0060528 
-0.027237 -0.00272119 0.00103749 -0.0650933 0.0558407 -0.0456252 -0.139875 0.068202 -0.0638531 
-0.0512354 0.0589715 -0.0361386 0.0584203 0.0226897 0.0111733 0.0363914 0.0206205 0.00878055 
0.0524734 0.0287109 0.00480982 -0.0965543 -0.0156285 0.00018973 0.0216253 0.00399521 -0.00155231 
0.0506151 -0.00336098 -0.0082953 0.0419989 -0.0450172 0.00297766 0.0737802 -0.0693498 0.00749712 
0.0282659 -0.0423495 -0.00624018 -0.0141144 0.0479372 0.00822744 0.0779647 -0.0803698 0.0109303 
0.0604787 -0.079765 0.00172797 0.0329083 -0.0474726 -0.00496889 -0.0464535 0.000101112 -0.0308718 
-0.0334504 0.00225461 -0.0249384 -0.057666 0.0113212 -0.0388875 0.0304752 -0.068038 -0.0139656 
0.0576682 -0.112879 -0.00849052 0.0375255 -0.0865295 -0.0178771 0.0538635 0.0223616 0.0131079 
-0.0609097 -0.0542471 -0.00350882 -0.0678876 -0.0835833 -0.0152282 0.0809859 0.0238166 0.0161334 
0.0522533 0.0157782 0.00914285 0.0330189 0.0548163 -0.0335404 0.0471963 0.0619401 -0.0350111 
0.0247376 0.0404391 -0.0293355 0.0276088 -0.0525296 -0.00715889 0.0419918 -0.0410267 0.00807707 
0.0445603 0.0662432 -0.0518948 0.101692 0.0271641 -0.00860068 0.0947552 0.0296655 0.000488744 
0.0608076 0.0472751 0.00328267 0.055217 0.0348902 0.00220303 0.0487473 0.028547 0.00655255 
-0.0377635 0.0712616 0.00694928 -0.0466372 0.081525 0.00524447 -0.0788829 -0.0312674 -0.0198878 
-0.0672737 -0.0353489 -0.0213423 -0.0667523 -0.0273317 -0.0225052 0.0724883 0.050062 -0.00211443 
0.131212 -0.015841 -0.0313821 -0.103069 -0.0528472 -0.0503288 -0.0502215 -0.0223842 -0.0106118 
-0.0273416 0.0876963 0.0134104 -0.107102 -0.0116903 0.0029768 -0.0993493 -0.0193353 0.000846502 
-0.122765 -0.0316714 -0.00165069 0.0497706 -0.0705429 0.00930061 -0.0790813 0.0139635 0.000311564 
-0.0567312 0.00641684 -6.88104e-05 -0.079624 0.0203239 -0.00146598 -0.0641472 -0.0044771 -0.04822 
0.0220482 0.00616163 -0.00184692 -0.0881032 0.0158445 -0.00574798 -0.0858527 0.00821547 -0.00133954 
-0.0845576 0.00814818 -0.00768497 0.103663 -0.0601225 -0.0446676 0.102751 -0.0255282 -0.019084 
-0.0243452 -0.0969998 0.00678888 -0.00936578 -0.0718513 -0.00282233 -0.0209813 -0.0795226 -0.0115806 
-0.0645267 -0.0288257 -0.00553598 -0.0662999 -0.0349625 -0.0150703 -0.048287 -0.0355265 -0.00995225 
-0.0059654 -0.0530246 -0.0236526 0.014234 -0.064252 -0.0428572 0.00785997 -0.079927 -0.0194431 
0.0376571 -0.0697914 0.000614255 -0.0841989 -0.047032 -0.00693197 -0.0978318 -0.0594342 -0.00262598 
-0.100417 -0.0575855 -0.00561595 -0.0287236 -0.0512544 0.0207882 0.0148493 0.111191 0.0203852 
0.0449609 -0.045323 0.00655872 0.0617413 -0.0473943 0.00995056 0.0676564 -0.0611305 0.00573901 
0.0783811 -0.0621338 0.010349 -0.0123761 0.0379163 -0.00122548 -0.018601 0.0367944 -0.00070782 
-0.0271068 0.0613936 0.00360992 -0.0308252 0.0733742 0.00283862 0.0376648 -0.025091 0.00564641 
0.0843555 -0.0258302 -0.0243443 0.0201277 -0.0581409 -0.0197535 0.0272832 -0.0735484 0.00341847 
-0.0397881 0.0373301 -0.0424423 -0.0390781 0.0400246 -0.0405695 -0.0321301 0.0468499 -0.0464041 
0.0245494 0.116674 -0.000257292 0.0268514 0.0805166 0.00552825 0.050875 0.101444 0.0117764 
-0.056972 -0.0608809 0.0180149 -0.0499693 -0.036193 0.0135223 -0.0831784 -0.0583163 0.00681107 
-0.0176828 -0.0205437 0.00667462 -0.0371934 -0.0583358 0.0117641 -0.0218052 0.0432242 0.000895219 
-0.0940006 -0.0401984 -0.000874949 -0.0974536 -0.0345029 -0.0012828 -0.0917761 -0.0331241 -0.00408207 
0.100463 0.0204365 -0.00838625 0.031629 0.0569301 -0.0015604 0.0560157 0.0837046 -0.00558517 
0.0556759 0.0610839 -0.00187337 0.0125854 -0.111945 0.0105761 0.0383486 0.078414 -0.0200728 
0.0607829 0.0766123 -0.0115707 0.031254 0.0586589 -0.00400388 0.0629677 0.0842329 -0.0174928 
-0.0706549 -0.0216192 -0.00767399 -0.0891882 -0.0295339 -0.00506447 -0.0681996 -0.0194296 -0.0041623 
-0.0540951 -0.0354162 0.00703399 0.0480556 0.0620532 0.0157966 0.0251224 -0.052179 0.0126064 
-0.000491703 -0.0731009 0.0172116 0.0927506 -0.059873 0.0140977 0.099647 -0.0409732 0.013304 
0.0814711 -0.0471032 -0.00157419 0.137467 -0.016601 0.00477615 0.113205 0.011364 -0.00544691 
0.0910525 -0.00665345 -0.0118221 0.0626234 -0.121711 -0.0395217 0.0855802 -0.0717512 -0.0326861 
0.0889962 -0.0314462 -0.00362668 -0.0172872 0.0490305 -0.00112114 -0.0566294 -0.000246906 -0.00437369 
-0.0485176 -0.00219446 -0.0025113 -0.090608 -0.0334867 -0.0134608 0.0394966 0.0756653 -0.00379727 
-0.0291189 -0.0181519 0.00846418 -0.0503356 0.0708789 -0.00995592 -0.04614 0.0584987 -0.0123005 
-0.0387647 0.05508 -0.00541299 -0.11722 -0.0317164 -0.0132916 -0.115544 -0.0219896 -0.0158139 
-0.168121 -0.0469326 -0.0442339 -0.0198553 0.0116734 -0.00624873 -0.0590772 0.0176189 -0.00836443 
-0.0139745 -0.04322 0.0174092 -0.0550162 0.0624656 -0.00792707 0.119719 -0.0627252 0.029735 
0.0765417 -0.0448393 0.0211938 0.0783096 -0.0434425 0.0201896 0.0563538 0.103676 0.0213469 
0.0662287 0.106875 0.0357371 0.0635214 0.107061 0.0283807 0.0606948 0.0701378 0.0222828 
0.0652315 -0.0500576 0.00106623 0.0696285 -0.0649426 -0.00289098 0.0658566 -0.0611262 0.00259733 
0.0775592 -0.0824227 -0.0288507 -0.0811418 0.00493438 0.00123524 -0.0784065 0.00611671 0.00286459 
-0.0747729 0.0189252 -0.0543534 -0.0893941 0.00427366 -0.0724195 -0.0810576 0.00559955 -0.0515924 
-0.0431654 -0.0171457 0.00310124 -0.0846201 0.023871 -0.0645862 0.0599562 -0.0328626 -0.0119115 
0.0470988 -0.0397103 -0.00587571 0.0829476 -0.0631935 0.00278482 0.088941 -0.0577389 0.0247584 
-0.0979009 -0.0270859 -0.0293093 -0.10824 -0.0373544 -0.0330368 -0.105396 -0.0309916 -0.029733 
-0.0249815 0.0382576 0.000519747 -0.0496606 0.0474087 -0.000485758 -0.0297877 0.0277618 -0.00213547 
-0.063918 -0.0334411 -0.0442284 -0.0708147 -0.0235921 -0.0446628 -0.0634765 -0.0225399 -0.0507806 
-0.096022 -0.0451346 -0.0528733 -0.0810384 -0.0691859 -0.0315834 -0.0484247 -0.0254296 0.00194989 
-0.091917 -0.0143861 -0.0256955 -0.113929 0.0103303 -0.0403789 -0.116917 -0.0119373 -0.0429985 
-0.0711409 0.00398094 -0.0154402 -0.0900857 0.126281 -0.0333792 -0.0674197 0.108808 -0.0251211 
-0.0622809 0.0874683 -0.0178739 -0.0654086 0.102426 -0.0270771 -0.0604286 0.0699968 -0.00872558 
-0.0792468 0.0705175 -0.023769 -0.0890947 0.0261606 -0.00331633 0.0313086 0.119885 0.0158872 
-0.0609805 0.109438 -0.0090541 -0.0384457 0.0714812 -0.0161701 -0.0620735 0.101451 -0.0172008 
-0.0505731 0.0819648 -0.022699 -0.0443237 0.0787125 -0.0071442 -0.0734503 0.0806682 -0.00933543 
-0.0350034 0.0768421 0.00144318 -0.0246863 -0.0783246 -0.0172689 -0.0384097 -0.0692879 -0.0291657 
0.0450405 -0.0794764 -0.0240534 0.0206555 -0.0929571 -0.012503 0.0242919 -0.0624842 -0.029178 
0.0611178 -0.0637503 0.0101987 -0.0499902 0.0473221 -0.0494931 0.0822679 -0.00158049 -0.00924354 
-0.0639927 0.11797 0.0102816 -0.0294728 -0.0808578 -0.00471772 0.00239862 0.0276262 0.00585564 
0.0570873 -0.0369529 0.00898076 -0.0474042 0.0357811 -0.0188756 -0.0370189 0.051454 -0.025681 
-0.0570895 0.0416153 -0.0335216 0.00360444 -0.111719 -0.0214071 0.0145185 -0.103057 -0.00487442 
-0.0639185 0.0735691 -0.0178086 -0.0346122 0.0310425 -0.0179186 -0.0504438 0.0369978 -0.0305256 
-0.0409041 0.0374485 -0.0284757 0.0351101 -0.0389147 0.00786669 -0.0877318 -0.0282649 -0.0279951 
-0.0675417 0.098427 -0.0381008 -0.0738266 0.0773432 -0.0364968 -0.123265 0.0341364 -0.0290542 
-0.0687918 0.010954 -0.00964891 -0.0597321 0.00943931 -0.00975834 -0.102909 0.0368393 -0.0178683 
-0.0575017 0.0517861 -0.0387378 0.0558091 -0.0551279 0.0125726 0.077571 -0.080651 0.00882074 
-0.0746437 0.0649141 -0.025978 -0.0609211 0.0808435 -0.0277269 -0.0634446 0.0318089 -0.00725353 
0.0312344 -0.0817618 -0.0131974 0.0412497 -0.104367 -0.0185566 0.0323777 -0.0550417 -0.0113887 
0.0913304 0.00870203 -0.011968 0.0324296 0.0548783 0.00926321 0.0595746 0.029641 0.0127922 
0.0726905 0.0428214 0.0184579 0.0260902 0.01611 0.00225474 0.068691 -0.0812846 -0.000697841 
0.0542196 -0.054036 0.00513344 0.0350609 -0.052704 -0.00384679 -0.110909 -0.00792269 0.00282673 
-0.0835852 -0.00208567 -0.00668827 -0.0667211 -0.0068473 -0.00896598 -0.0862808 0.0508409 -0.0680367 
-0.0700617 0.0433449 -0.0506511 -0.0938168 0.025373 -0.0558904 -0.0743172 0.0207921 -0.045426 
-0.0632173 0.000156235 0.00472287 -0.0626635 0.0667623 -0.0521146 0.055215 0.0820905 0.0140997 
0.0619368 0.042124 0.0129069 -0.0913519 0.00792693 -0.0448344 -0.100096 -0.00497608 -0.0471112 
-0.112567 -0.0177589 -0.0369969 -0.124021 -0.0213867 -0.038212 0.0922634 0.0448083 0.00323222 
0.0658082 0.0466013 0.012766 -0.104099 -0.0270486 -0.0333019 -0.0988499 -0.0198292 -0.0305212 
-0.123925 -0.0335407 -0.042103 -0.0861884 -0.024424 -0.0287837 -0.0991321 -0.0314719 -0.0344169 
-0.0889124 -0.0639793 -0.0597737 -0.0753883 -0.0563506 -0.0579822 -0.0422882 -0.0610129 -0.0591693 
-0.0388722 0.0483004 -0.0446778 -0.0484402 0.0424514 -0.0418118 -0.0256527 0.0546021 -0.0427992 
-0.0402682 0.0330125 -0.028903 -0.0435906 0.0293737 -0.0277085 0.0347838 0.0461824 0.0113818 
-0.0812241 -0.0132957 -7.47294e-05 -0.124139 -0.00901729 0.00868543 -0.0409955 0.0865199 0.00689769 
-0.0116196 0.04169 0.000215227 -0.0230264 0.0668725 -0.00214654 -0.0419477 0.073976 -0.00488501 
-0.059607 0.0471841 -0.0385137 -0.0383262 -0.0287193 -0.00952051 -0.039218 -0.0175328 -0.0159117 
-0.0393433 -0.0191914 -0.0179286 -0.105122 -0.052285 -0.0560052 -0.0833537 -0.0343028 -0.0380424 
-0.0909504 -0.0525231 -0.0556678 -0.0686522 -0.0672396 -0.0454285 -0.0536323 -0.0415843 -0.0338944 
-0.0320359 -0.0355055 -0.0303533 -0.050986 -0.029603 -0.043602 -0.0449235 -0.0385598 -0.0461605 
-0.0277895 0.06651 -0.0517484 -0.0228756 0.0631671 -0.0492336 -0.0435812 -0.068576 -0.0369127 
-0.0580918 -0.0803594 -0.0592234 -0.049958 0.0388016 -0.0329626 -0.0396271 0.0292995 -0.025855 
-0.0462102 0.0343975 -0.0308978 0.0314837 0.115841 0.00439106 -0.00707636 0.0886269 0.00682331 
-0.0841651 0.0116398 -0.0410531 -0.0289773 0.041732 -0.02172 -0.0310785 0.0428298 -0.0239388 
-0.0104957 0.0454645 -0.0250985 -0.0210459 0.0682646 -0.0252744 -0.0276917 0.0549232 -0.036693 
-0.0626949 0.0425781 -0.0365871 -0.053568 0.0289335 -0.0301739 -0.049308 0.0489443 -0.0440243 
-0.0445463 -0.0688911 -0.00301954 -0.05313 -0.0648657 0.000651828 -0.0259656 -0.0424886 -0.00687842 
-0.0562684 -0.0698036 -0.00221034 -0.0440347 -0.0718569 -0.0101625 -0.0184313 -0.0427282 -0.0262489 
0.0980114 0.0476003 -0.000251452 0.0598686 0.118796 0.0189907 0.0821377 0.115492 0.0304204 
-0.0678753 -0.0249613 -0.0159986 -0.0683295 -0.0202208 -0.0152877 -0.0136392 -0.068884 -0.0303718 
-0.0401587 -0.0854527 0.00245086 -0.080296 -0.0218108 -0.0247361 -0.10687 -0.0241722 -0.0329431 
-0.0876005 -0.026732 -0.0277104 -0.0787171 -0.00586469 0.00192529 -0.102614 0.00109695 -0.00763851 
-0.109258 -0.00570091 -0.0197655 -0.102514 -0.0171555 -0.0234462 0.0580713 -0.0561151 0.00978273 
0.0389979 -0.0650534 -0.00973457 0.107545 0.0432365 0.0166835 0.0908359 0.0269155 0.0151068 
-0.0986805 -0.00428304 0.000507387 -0.0423473 0.0490622 -0.0265516 -0.110417 -0.012333 -0.0195723 
-0.029502 0.041643 -0.0368669 -0.0217585 0.0671685 -0.044928 -0.0180944 -0.0364077 -0.0356694 
-0.00646498 -0.0687489 -0.0830986 0.00323392 -0.0593152 -0.0480329 -0.0553922 -0.0171419 -0.0147028 
-0.0744902 -0.0287437 -0.0203247 -0.0702208 -0.00893615 -0.0178546 0.054049 0.057822 0.0143247 
0.039948 0.0507722 0.0113047 -0.0218471 0.0683348 -0.0495829 -0.0254288 -0.055743 -0.00844677 
-0.0400849 0.0684632 0.000810802 -0.0291281 0.0643913 0.0043406 0.0633787 -0.0864237 -0.0281037 
-0.00744794 0.00137228 -0.00478202 -0.0577663 0.00523464 -0.00700762 -0.0893314 0.0165819 -0.00366361 
0.042016 -0.0550131 -0.0178507 0.0342881 -0.0405721 -0.0149699 -0.0294853 -0.0439764 -0.0423679 
0.00876805 0.0718664 0.000906068 -0.0126503 0.0507535 -0.00370279 0.000951017 0.104836 -0.00291935 
-0.0584281 -0.0147554 -0.0132287 0.0145117 -0.0158582 -4.51903e-05 -0.00407039 0.0634267 -0.0386705 
-0.00660872 0.0134945 -0.00108866 0.0277159 -0.0375677 -0.0133289 -0.0452309 -0.0621894 -0.056908 
-0.0469419 0.0370095 -0.0412016 -0.0262531 0.0211598 -0.0201048 -0.0452103 0.0326266 -0.035689 
0.068332 -0.0692133 -0.0065366 0.0623606 -0.059156 -0.0470824 -0.0433444 0.0319853 -0.0315108 
-0.0732824 -0.0836838 -0.00472591 -0.093265 -0.0705593 -0.0191149 -0.0570863 -0.0700054 -0.0158657 
0.0128825 0.0634026 -0.0306685 0.0107196 0.06025 -0.0269769 0.0202919 0.055979 -0.0278941 
-0.0327659 0.0583566 -0.00393688 -0.0322098 0.0649168 0.000924465 -0.0338097 0.0459154 -0.000522008 
-0.0231354 -0.0801105 -0.0507964 0.00700339 -0.0375055 -0.0289772 -0.00599157 -0.0539223 -0.0349912 
-0.0095966 -0.0544799 -0.0429103 -0.0671046 -0.0195589 -0.0259521 0.0604947 -0.0294072 0.0118336 
0.055726 -0.035163 0.0131942 0.0821358 -0.0107093 0.0145271 0.0624843 -0.0235957 0.0104572 
0.123455 -0.0394156 0.0311243 0.102224 -0.0389262 0.0163662 -0.0898523 0.059901 -0.0298515 
0.092443 0.0111454 0.019444 0.0797282 0.000883671 0.013036 0.0671794 0.0150277 0.0118811 
0.00696682 0.0388776 -0.0114363 -0.0792895 -0.0586455 -0.0355475 -0.0563249 -0.0585015 -0.0115645 
-0.040466 -0.0739297 -0.021996 -0.0823834 -0.0961196 -0.0243981 -0.0365435 -0.0926707 -0.0346407 
-0.108865 -0.0943248 -0.00664171 -0.109124 -0.0823861 -0.0285771 0.0376229 -0.0882425 -0.0338837 
0.0374926 -0.0646491 -0.0181992 0.030986 -0.0720103 -0.0273728 0.0177686 -0.0883843 -0.0479179 
0.0213543 -0.0811085 -0.026955 0.0543881 0.112611 0.0198038 -0.00221871 -0.0604134 -0.0194347 
0.00580891 -0.0501303 -0.00689073 0.0161038 -0.0743069 0.0013089 0.0299289 -0.0666262 0.0101822 
0.0231491 -0.0467844 0.0033617 0.0618732 -0.0728216 0.0166052 0.0748937 0.0654546 0.0102052 
0.0788169 0.0857728 -0.00144055 0.0849426 0.0770646 0.0150999 0.0554493 0.0696481 -0.00907111 
0.0541118 0.0820213 0.0282311 0.0725069 0.0705515 0.0225058 0.0895138 0.0923259 0.023755 
-0.046792 -0.0565873 0.000832859 0.0368653 -0.0405662 -0.00238177 0.0573434 -0.0764514 0.00500309 
0.0374245 0.0303959 0.00343801 0.035357 0.0411904 0.000568734 0.0483039 0.0434241 -0.0025232 
0.0447228 0.0612838 -0.00186871 0.0544344 0.049122 0.00159354 -0.0387112 0.0390493 -0.0389261 
-0.051742 0.0552065 -0.057091 -0.0489795 0.0632535 -0.0621309 -0.063103 0.0792478 -0.0747059 
0.0213451 -0.0796022 -0.0419268 0.103284 0.0693234 0.0154727 0.115523 0.0187781 0.0111489 
0.0915725 0.0323764 0.00896729 0.0323301 0.0236421 -0.0560043 0.0393211 0.0243811 -0.0969248 
0.0162166 0.0284358 -0.105589 -0.0366835 0.0592698 -0.00310529 0.113215 0.0358473 0.0206265 
0.0648312 -0.0549243 0.00399362 0.100152 0.0308215 0.0207451 0.0729343 0.0372746 0.0109696 
0.0760862 0.0361747 0.00916364 0.0300217 0.0956917 -0.0498747 0.0123057 0.0897667 -0.0483604 
0.00288579 0.109426 -0.0489928 -0.0853882 -0.0219156 -0.0520779 -0.0730527 -0.0254826 -0.0473887 
-0.0799511 -0.0157154 -0.0564801 -0.110301 -0.0211742 -0.0501078 0.0769956 -0.0435281 0.031381 
0.0433142 -0.0328868 0.010847 0.105135 -0.0526779 0.0305212 0.0103697 -0.00580853 -0.00526119 
0.0843001 -0.0073617 0.0124143 0.0666357 -0.00676842 -0.0112219 0.0955776 -0.0571896 0.0209063 
0.0914492 -0.050765 0.0197178 0.0874503 -0.0402796 0.0239371 0.0298847 0.125236 -0.0243097 
0.0857314 0.040962 0.0146927 0.0803292 0.0532747 0.00215018 0.0806922 0.072925 0.00320558 
0.0747203 0.0360307 -0.000187572 -0.0639195 0.0377792 -0.0396141 0.0534741 0.045259 -0.0388262 
0.0416299 0.0475249 -0.0409408 0.043316 0.0580195 -0.0355834 0.105844 -0.0537909 0.0321 
0.0974626 -0.047248 0.0205412 0.104979 -0.0240607 0.022651 0.0120201 0.0744184 -0.0528993 
0.00678144 0.0636387 -0.0337808 0.0301799 0.0826306 -0.0454752 -0.0160119 0.0777437 -0.0586763 
0.073734 0.0436391 -0.0277214 0.0629965 0.0406721 -0.0393897 0.058707 0.0445029 -0.0245155 
0.0628831 -0.0696942 0.0116195 0.0578768 -0.053236 0.0074898 0.0436764 -0.0647881 0.0088903 
0.064127 -0.0680727 0.0218128 0.03129 -0.0400909 0.00715714 0.0490011 -0.0373854 0.00963238 
0.0268051 0.03739 -0.0132011 0.0511588 0.0406329 -0.0139356 0.0422321 0.0479611 -0.00786602 
0.047058 0.0504413 -0.0117526 0.0691843 0.0832285 -0.0320485 0.0526136 0.0435575 -0.0167113 
0.0337831 0.0684835 -0.0202078 -0.0263091 -0.0428691 -0.0388278 -0.0477691 -0.0443805 -0.0431926 
0.0473303 0.0737636 0.0138308 0.0244447 0.0455532 0.00785916 0.0350617 0.0617935 0.0132429 
-0.0663408 -0.0288148 -0.0598728 -0.0512388 -0.0279601 -0.0418942 0.0521166 -0.0293193 -0.0111561 
0.0672132 -0.0197524 -0.0155236 0.031151 -0.0168056 -0.0096625 -0.0821592 -0.0428974 -0.0300229 
0.00822401 -0.0299804 -0.0135605 -0.048037 -0.0407479 -0.0336331 -0.0326188 -0.0532358 -0.0343862 
0.0788535 -0.0890801 0.00834409 0.0661123 -0.0598394 0.00959811 0.0442037 -0.054128 0.00941313 
0.0467166 0.10428 0.00597991 -0.00775583 0.0215808 0.0025638 -0.0509684 -0.00306133 -0.0198118 
-0.0550658 -0.000792546 -0.0191062 -0.0891405 -0.0187868 -0.0311451 -0.0617928 -0.0731343 -0.0708984 
-0.0467618 -0.0393325 -0.0355249 0.0142715 0.0670648 0.00754753 0.0217364 0.0785611 -0.00280202 
-0.0491773 0.0308629 -0.0373785 0.00174366 0.0628539 -0.0385593 -0.00862406 0.0685554 -0.0398579 
-0.0673239 -0.0500933 -0.0499783 0.01379 -0.0836818 -0.0855502 -0.0550383 0.0577181 -0.0258857 
-0.0623132 -0.036838 -0.00201246 -0.00394745 -0.0696448 -0.0636417 0.0637699 0.0706188 0.0106983 
0.0834731 0.0874249 0.0133018 0.0444747 -0.0700568 0.00358085 -0.0263031 -0.0667211 -0.0523388 
0.0370344 -0.0865767 -0.0173884 -0.0780295 -0.0339365 -0.0484884 -0.101543 -0.0413565 -0.0530122 
0.0278486 0.048517 0.0108007 0.0670741 0.0984728 0.00821815 0.0189023 0.0532335 -0.0293797 
0.030435 0.0975909 -0.00710153 -0.075561 0.0345969 -0.0548396 -0.0775444 0.0433229 -0.0600895 
-0.0110347 0.033485 0.00601525 0.00874061 0.0506712 0.00536231 -0.0749484 -1.38498e-05 -0.0453839 