# vtk DataFile Version 5.1
vtk output
ASCII
DATASET UNSTRUCTURED_GRID
POINTS 2395 float
-0.787405 2.2381 -1.77636e-15 -2.71321 1.00107 -1.77636e-15 -1.0455 2.09759 -1.77636e-15 
-1.29787 1.93049 -1.77636e-15 -1.53252 1.74673 -1.77636e-15 -1.73514 1.49601 -1.77636e-15 
-1.90472 1.1981 -1.77636e-15 -2.01971 0.899876 -1.77636e-15 -2.05517 0.527829 -1.77636e-15 
-2.05653 0.182462 -1.77636e-15 -2.04331 -0.166101 -1.77636e-15 -1.99264 -0.535857 -1.77636e-15 
-1.94948 -0.908949 0 -1.85756 -1.27551 0 -1.67647 -1.59454 0 
-1.4839 -1.89982 0 -1.25958 -2.15297 0 -1.01013 -2.38525 0 
-0.711327 -2.54657 0 -0.40325 -2.57527 0 -0.0224269 -2.52013 0 
0.266473 -2.24047 0 0.541376 -2.06335 0 0.826334 -1.86133 0 
1.12707 -1.73347 0 1.54312 -1.74409 0 1.78307 -1.58873 0 
1.97178 -1.46281 0 2.12116 -1.25282 0 2.28549 -0.994528 0 
2.35926 -0.653669 0 2.46188 -0.337576 -1.77636e-15 2.42994 -0.00696124 -1.77636e-15 
2.3525 0.293454 -1.77636e-15 2.20602 0.560075 -1.77636e-15 2.00647 0.835841 -0.0351341 
1.78407 1.01284 -1.77636e-15 1.58608 1.22811 -1.77636e-15 1.37988 1.48601 0 
1.1472 1.68886 -1.77636e-15 0.901829 1.90425 -1.77636e-15 0.66374 2.15297 -1.77636e-15 
0.387409 2.36323 -1.77636e-15 0.105482 2.5369 -1.77636e-15 -0.209638 2.53353 -1.77636e-15 
-0.511328 2.40248 -1.77636e-15 -2.60209 1.36683 -1.77636e-15 -2.43723 1.69416 -1.77636e-15 
-2.22197 1.97292 -1.77636e-15 -2.02132 2.28622 -1.77636e-15 -1.80466 2.54854 -1.77636e-15 
-1.58207 2.78894 -1.77636e-15 -1.31664 3.02787 -1.77636e-15 -1.01722 3.15952 -1.77636e-15 
-0.687595 3.22028 -1.77636e-15 -0.339753 3.24652 -1.77636e-15 -0.00938128 3.24709 -1.77636e-15 
0.323404 3.18947 -1.77636e-15 0.663904 3.08893 -1.77636e-15 0.967498 2.88607 -1.77636e-15 
1.30874 2.67051 -1.77636e-15 1.65981 2.47732 -1.77636e-15 2.05369 2.32104 -1.77636e-15 
2.41369 2.17865 -1.77636e-15 2.64559 2.01348 -1.77636e-15 2.82601 1.75584 -0.0340784 
2.96678 1.45602 -0.0195795 3.06946 1.13455 -0.0444111 3.10216 0.817728 -0.169027 
3.10588 0.482702 -0.0138449 3.03545 0.162607 -0.0918348 2.9749 -0.16011 -0.0387782 
2.92435 -0.497138 -0.0806907 2.85109 -0.838981 -0.0750087 2.74506 -1.15435 -0.0257652 
2.60473 -1.41672 0 2.42743 -1.65247 0 2.22081 -1.8795 0 
2.03443 -2.092 0 1.8461 -2.28635 0 1.63483 -2.47662 0 
1.39334 -2.69054 0 1.14341 -2.8703 0 0.828734 -3.12393 0 
0.475576 -3.39053 0 0.048056 -3.56198 0 -0.334577 -3.5203 0 
-0.66424 -3.43612 0 -1.00844 -3.36251 0 -1.36688 -3.24151 0 
-1.65146 -3.03869 0 -1.93042 -2.78444 0 -2.17508 -2.48448 0 
-2.37795 -2.15437 0 -2.54626 -1.80695 0 -2.6767 -1.4507 0 
-2.78381 -1.10442 0 -2.87616 -0.756494 0 -2.92125 -0.410322 -1.77636e-15 
-2.91816 -0.0698112 -1.77636e-15 -2.85437 0.2698 -1.77636e-15 -2.79328 0.628917 -1.77636e-15 
-1.05754 -2.58718 -1.22609 -0.994116 -2.61043 -0.905282 -1.23629 -2.45829 -1.04895 
0.234315 2.73969 -0.865959 0.131252 2.64357 -0.414872 0.415641 2.52142 -0.516453 
-0.230798 -2.68306 -0.182274 0.0813978 -2.53622 -0.175979 2.08751 0.857133 -0.406819 
1.93617 1.09003 -0.279288 -1.69989 -1.66702 -1.6781 -1.77461 -1.67464 -1.31588 
-1.79492 -1.42972 -1.60259 -1.56818 -1.91825 -1.51664 -1.99044 -0.0602045 -0.233369 
-1.97136 -0.458996 -0.258154 0.367949 -2.3017 -0.227758 0.521878 2.33095 -0.305082 
0.746794 2.13169 -0.317718 0.589152 2.35404 -0.608456 -2.02022 0.420251 -0.923583 
-1.98298 0.331118 -0.565699 -1.9888 0.664832 -0.67042 -2.00231 0.104355 -0.851979 
0.633422 -2.04272 -0.187398 0.888928 -1.88139 -0.166746 -0.698533 2.67808 -0.960574 
-0.57578 2.86285 -1.17877 -0.760028 2.73474 -1.26352 -1.22432 -2.46351 -0.781376 
0.193475 -2.49067 -0.70827 0.359356 -2.38157 -0.760804 0.32939 -2.41895 -0.510305 
0.508352 -2.2361 -0.439743 1.77738 1.22765 -0.132164 1.64787 1.43414 -0.178934 
-1.95645 1.32796 -0.810117 -1.88373 1.63624 -0.933779 -1.96331 1.44999 -1.19622 
-0.471442 -2.7855 -0.7119 -0.729569 -2.74719 -0.562904 -0.701244 -2.7966 -0.845555 
-1.9226 1.46375 -0.546183 -1.91037 -1.14052 -0.459995 -1.84542 -1.34663 -0.225819 
-1.93743 -1.03927 -0.1722 2.21874 0.606923 -0.592041 2.11393 0.849739 -0.878684 
-1.81995 -1.41476 -0.50973 2.38893 -0.0224926 -0.433317 2.37512 -0.26466 -0.522367 
-1.96316 -0.747155 -0.140728 -1.69203 1.30865 -2.99326 -1.95622 1.17373 -2.60881 
-1.6757 1.51066 -2.71527 2.04334 1.13081 -1.67947 1.91784 1.37049 -1.65574 
1.93571 1.27791 -1.43557 -1.98167 -0.808083 -0.418971 2.35265 0.219504 -0.356801 
2.39519 -0.62403 -0.460078 0.86711 -1.92232 -0.462852 0.937636 -1.85102 -0.76245 
1.06248 -1.78056 -0.363292 -0.367811 2.68146 -0.411166 0.710619 -2.07211 -0.68151 
0.503732 -2.28124 -1.02907 0.290385 -2.41535 -1.09163 -0.849075 0.212534 -4.63223 
-1.01044 0.284225 -4.44244 -0.81607 0.399874 -4.71875 0.382119 -2.34773 -1.72021 
0.251564 -2.40404 -1.38345 0.0374121 -2.44122 -1.73158 2.03232 1.29119 -1.94245 
-1.29852 -2.33851 -1.33915 -1.12226 -2.49291 -1.56502 2.1266 1.04237 -2.01642 
2.12568 0.893257 -1.77635 1.52488 1.15247 -5.17691 1.72878 0.983336 -5.22155 
1.52579 1.03062 -5.37521 1.91117 -1.39513 -0.4046 2.11364 -1.16756 -0.38417 
1.66634 0.817825 -5.49298 2.2337 0.518532 -0.971494 2.15312 0.678529 -1.26897 
1.70516 1.56711 -0.944693 1.83347 1.39975 -1.12967 1.72933 1.59951 -1.27842 
-0.555627 2.67712 -0.6474 -0.810773 2.51384 -0.63302 -1.64539 -1.46512 -2.18934 
-1.47403 -1.74825 -2.25873 -1.57292 -1.72862 -2.00581 1.83457 1.3677 -0.780036 
2.32513 -0.362887 -0.85103 -1.55024 -1.46845 -2.55193 -1.57268 -1.87607 -1.81231 
-0.410816 2.8641 -0.94061 -1.9827 -0.582745 -0.623169 -2.02089 -0.637631 -0.968978 
-1.98531 -0.936544 -0.774237 0.13049 -2.53719 -0.4785 -2.03545 0.959043 -1.20776 
-2.02108 0.880781 -0.932221 -2.01512 1.1598 -1.02399 -0.978011 0.0106761 -4.46656 
2.29448 0.428665 -0.381465 -2.10918 0.965979 -1.56449 -2.10051 0.722352 -1.32475 
-2.16876 0.731178 -1.65839 2.19281 -0.673067 -1.05419 2.24615 -0.307854 -1.30851 
0.658687 -1.87825 -3.25486 0.631376 -1.8175 -2.87479 0.482078 -1.83005 -3.09038 
-1.47956 -2.1451 -1.38131 -1.43091 -2.09754 -1.73001 -1.34618 -2.26822 -1.58708 
-0.66989 -2.58768 -1.92389 -0.420444 -2.49891 -2.04406 -0.46018 -2.63334 -1.71538 
-0.0233299 -2.6488 -0.827057 -1.56391 -1.96475 -1.19967 -1.43534 -2.24098 -1.02274 
-1.56767 -1.97444 -0.823599 -0.883883 -2.58744 -0.305202 -0.149558 2.84948 -0.674857 
1.33716 -1.479 -2.04351 1.444 -1.36262 -1.95267 1.27022 -1.5234 -1.8391 
1.51789 -1.28308 -2.24044 -1.14932 2.20463 -0.409773 -0.892059 2.33688 -0.308047 
-1.02877 2.33336 -0.631271 -1.20538 2.22418 -0.74379 2.28068 -0.904893 -0.420879 
2.32652 -0.792203 -0.72008 -0.196742 -2.59574 -1.8281 -0.211688 -2.76867 -0.649801 
-0.260106 1.43823 -4.68338 -0.341426 1.64497 -4.45825 -0.18686 1.60866 -4.68153 
0.0250316 2.92618 -1.9743 0.266115 2.90047 -1.69532 0.437248 2.84307 -2.01467 
-1.21115 -2.44237 -0.453221 -1.37424 -2.17411 -0.289625 -1.42506 -2.25245 -0.619159 
-1.17225 -2.39465 -0.186134 -1.03136 -2.61206 -0.583533 -0.633824 2.45652 -0.279369 
-1.78181 -1.63495 -0.716132 -1.87597 -1.31027 -0.778145 -1.85471 -1.50593 -1.01999 
2.31134 0.284385 -0.676856 1.25504 2.25322 -3.67124 1.05429 2.40441 -3.29062 
1.34917 2.18521 -3.38556 0.900916 -1.79802 -3.13279 0.9377 2.36781 -3.68431 
0.828905 2.59342 -3.35288 0.701294 2.70349 -3.01609 0.933835 2.55877 -2.95103 
-1.99085 -1.00588 -1.33903 -1.93782 -1.16659 -1.07037 -1.99265 -0.910533 -1.09402 
-1.55403 -2.00763 -0.518652 0.474735 2.77412 -1.6422 -0.110699 -2.69795 -0.389157 
-0.407024 -2.79096 -0.423456 1.92726 -0.82977 -2.39794 2.07034 -0.522903 -2.32943 
1.96874 -0.664856 -1.95258 2.23593 0.240696 -1.80282 2.22829 0.377164 -1.37896 
2.2419 0.0428091 -1.39221 1.96335 -1.34219 -0.777727 2.19499 -1.05629 -0.755396 
2.09227 -0.395893 -1.90333 -1.35798 2.09322 -0.515647 -2.02519 0.558254 -0.243116 
-1.99571 0.253446 -0.213637 -1.90113 -1.31893 -1.33186 0.785809 2.7632 -2.77061 
-1.58442 -1.85435 -0.281325 -0.620892 2.75686 -2.12447 -0.844935 2.54007 -2.01386 
-0.845635 2.66658 -1.79543 -2.07201 -0.686835 -1.31055 -2.12242 -0.33705 -1.42406 
-2.03783 -0.582785 -1.79026 -1.96303 1.37866 -0.279409 -1.96334 1.15965 -0.425707 
-0.585272 -2.69569 -0.223347 -0.816829 2.57533 -2.34527 1.98596 -0.911922 -3.06908 
1.79227 -1.1731 -3.12403 1.94807 -1.13347 -3.47441 0.706209 2.603 -1.74398 
0.973416 2.45631 -1.5152 1.04208 2.53963 -1.84955 1.2425 2.17312 -1.51634 
1.61666 -1.15764 -1.77593 1.77729 -1.02696 -1.56503 1.58864 -1.2712 -1.43469 
1.82127 -1.06507 -1.20719 -2.08219 0.438493 -1.23848 -2.02228 0.676262 -1.04652 
-1.30406 0.539897 -4.07823 -1.1885 0.177004 -4.26975 -1.45356 0.209189 -3.93375 
-1.73537 -1.61162 -0.376279 -1.0135 0.535198 -4.43399 2.07803 -0.651934 -1.66678 
1.93622 -0.860888 -1.7056 1.80768 -0.937261 -2.00649 1.72059 -1.1103 -2.72532 
-1.78206 -1.16802 -2.112 -1.89339 -0.802654 -2.12897 -1.77346 -0.927689 -2.4278 
-1.64269 1.84874 -0.38971 -1.81478 1.6988 -0.625574 -1.78422 1.63631 -0.243549 
-1.27911 -0.737781 -3.8043 -1.41604 -0.421999 -3.81644 -1.21928 -0.470526 -4.05785 
-1.44837 -0.720566 -3.5169 -1.19495 -2.28736 -1.93007 -1.70715 -1.81664 -0.520688 
-2.12519 0.485424 -2.27651 -2.11962 0.744066 -2.48802 -2.02706 0.412761 -2.65617 
-2.10309 0.702085 -2.1977 -1.19169 2.13381 -2.3447 -1.30948 2.17702 -1.8801 
-1.04702 2.34807 -2.15255 -1.52775 1.93284 -2.07879 -0.892617 2.37974 -2.54379 
-1.00737 2.23227 -2.81754 -2.03748 1.23261 -1.3959 -0.0908608 2.92557 -1.06502 
-1.35402 2.20187 -1.44649 -1.54888 2.02366 -1.66634 -1.06552 2.39782 -1.68699 
-1.75326 1.83969 -1.7769 -1.66261 1.94746 -1.41322 -1.87978 1.70509 -1.42253 
-1.54559 2.02663 -1.11365 -0.790873 -2.62712 -1.6691 -0.937924 -2.4616 -1.96356 
1.1428 -1.6813 -0.567102 1.33977 -1.51911 -0.727139 1.57436 -1.7359 -0.328284 
1.15861 -1.65813 -0.896492 -0.529557 1.37653 -4.51992 2.36162 -0.0391428 -0.796106 
-0.954127 2.44502 -1.00733 -0.805874 -2.74877 -1.11724 -0.102567 2.71891 -0.321034 
1.65501 -1.10169 -2.0354 -0.856746 2.30461 -3.08462 -0.652189 2.46374 -3.28863 
-0.772823 2.24467 -3.41894 -0.551607 -2.72868 -1.37356 -0.417018 -2.79625 -0.997154 
[...]
POINT_DATA 2395
FIELD FieldData 1
Nodal_area 3 2395 float
0 0 0 0 0 0 0 0 0 
0 0 0 0 0 0 0 0 0 
0 0 0 0 0 0 0 0 0 
0 0 0 0 0 0 0 0 0 
0 0 0 0 0 0 0 0 0 
0 0 0 0 0 0 0 0 0 
0 0 0 0 0 0 0 0 0 
0 0 0 0 0 0 0 0 0 
0 0 0 0 0 0 0 0 0 
0 0 0 0 0 0 0 0 0 
0 0 0 0 0 0 0 0 0 
0 0 0 0 0 0 0 0 0 
0 0 0 0 0 0 0 0 0 
0 0 0 0 0 0 0 0 0 
0 0 0 0 0 0 0 0 0 
0 0 0 0 0 0 0 0 0 
0 0 0 0 0 0 0 0 0 
0 0 0 0 0 0 0 0 0 
0 0 0 0 0 0 0 0 0 
0 0 0 0 0 0 0 0 0 
0 0 0 0 0 0 0 0 0 
0 0 0 0 0 0 0 0 0 
0 0 0 0 0 0 0 0 0 
0 0 0 0 0 0 0 0 0 
0 0 0 0 0 0 0 0 0 
0 0 0 0 0 0 0 0 0 
0 0 0 0 0 0 0 0 0 
0 0 0 0 0 0 0 0 0 
0 0 0 0 0 0 0 0 0 
0 0 0 0 0 0 0 0 0 
0 0 0 0 0 0 0 0 0 
0 0 0 0 0 0 0 0 0 
0 0 0 0 0 0 0 0 0 
0 0 0 0 0 0 0 0 0 
-0.0503023 -0.0690608 -0.00595283 -0.0548246 -0.0884344 0.00204496 -0.0447557 -0.0512542 -0.0029285 
0.0734442 0.133522 0.0353211 0.0286112 0.0597366 0.0191879 0.0432893 0.0519204 0.0133503 
0.00793847 -0.0348371 0.0123148 0.0250004 -0.0363448 0.00703349 0.0551787 0.0261235 0.00487392 
0.0388838 0.0202745 0.0107079 -0.0771169 -0.0387104 -0.0148003 -0.102515 -0.0531976 -0.0142249 
-0.0763037 -0.0315671 -0.0129665 -0.0740137 -0.045137 -0.00935764 -0.0461091 -0.00074612 -0.00209723 
-0.0642669 -0.000423492 0.00176505 0.0348455 -0.041893 0.010572 0.0189409 0.0189722 0.00564416 
0.0369102 0.0469656 0.0124225 0.0609795 0.0654665 0.0173975 -0.0879123 0.00342427 0.0142287 
-0.110841 -0.00446556 0.00119294 -0.123454 -0.00421877 -0.000166411 -0.0985142 0.00335884 0.0197461 
0.0191807 -0.0237286 0.00720644 0.0185627 -0.0264986 0.00368001 -0.0590933 0.074762 0.0239528 
-0.0333067 0.0544874 0.0147437 -0.0639701 0.0633252 0.0101194 -0.0585861 -0.0662525 0.00153302 
0.0254475 -0.0384893 0.00212486 0.0640334 -0.0773504 0.00172352 0.0300039 -0.0393151 0.0044579 
0.0535185 -0.0581745 0.00920039 0.0200067 0.0137089 0.0104687 0.036174 0.0381105 0.016459 
-0.0981632 0.021424 0.00697963 -0.104825 0.0516551 0.00844402 -0.0922705 0.0276572 0.00962431 
-0.000712324 -0.0623364 0.00283464 -0.0359137 -0.0991791 0.0162808 -0.018698 -0.0654065 0.00263012 
-0.0832806 0.02928 0.00411243 -0.0931495 -0.0260052 0.0033977 -0.0370803 -0.0128076 0.000153778 
-0.0423182 -0.00869675 0.00103282 0.0720164 0.0268133 -0.00187895 0.12712 0.0534406 -0.00239703 
-0.0614912 -0.0205367 0.00421734 0.0473627 0.00561534 -0.0039499 0.0519351 -0.0013905 -0.00648661 
-0.0277824 -0.00130829 0.00213469 -0.0803915 0.060128 -0.0480281 -0.156609 0.071253 -0.0607387 
-0.0685449 0.0599553 -0.0379021 0.0662065 0.0257289 0.0110651 0.0505177 0.0269145 0.0113734 
0.0645195 0.0336555 0.00694159 -0.0974759 -0.00840371 0.00417269 0.0246266 0.0053952 -0.00208487 
0.0562488 -0.00626885 -0.0082801 0.0397552 -0.0494477 0.0018198 0.0711888 -0.0751244 0.00010556 
0.0247628 -0.0457717 -0.00827587 -0.0202605 0.0476799 0.0212399 0.076597 -0.0862026 0.00809451 
0.0636562 -0.0823646 -0.00379893 0.036173 -0.0507904 -0.0070585 -0.0493156 -0.00339811 -0.0382103 
-0.0427235 -0.00158203 -0.0367916 -0.0672065 0.00810628 -0.055301 0.0367968 -0.0684975 -0.0161617 
0.0636683 -0.116416 -0.0106458 0.0442255 -0.0948347 -0.0172895 0.0634726 0.0259795 0.0140354 
-0.0604837 -0.0595071 -0.00794595 -0.0683877 -0.0947683 -0.024984 0.0871634 0.0263374 0.0152131 
0.0605667 0.0187075 0.00903251 0.0345635 0.0615089 -0.0441618 0.0498907 0.0631063 -0.0446302 
0.0253964 0.0453641 -0.0380464 0.0326957 -0.0453142 -0.0146088 0.0480061 -0.0372406 0.00023677 
0.044957 0.06619 -0.0604522 0.116347 0.0330114 -0.00861875 0.108723 0.0349788 0.000522117 
0.0722682 0.0540383 0.00997437 0.0646486 0.0399279 0.00562549 0.0583219 0.0343239 0.00991083 
-0.0463822 0.0736698 0.0286113 -0.0603387 0.0837511 0.0256107 -0.0832968 -0.0400818 -0.0257868 
-0.0705822 -0.0433176 -0.0267129 -0.0708492 -0.0381274 -0.0246323 0.0809218 0.0566707 0.0028845 
0.141031 -0.0156366 -0.0313993 -0.11689 -0.0692108 -0.0545239 -0.0531353 -0.0315026 -0.0124696 
-0.0330139 0.0933519 0.0281787 -0.108301 -0.00339064 0.00893432 -0.0981001 -0.012115 0.0140316 
-0.122163 -0.0206872 0.00658688 0.0556979 -0.0793251 0.00669226 -0.079303 0.00696348 0.0121752 
-0.0618966 -0.000893896 0.00350858 -0.0852918 0.0119752 0.00672216 -0.0654438 -0.00656152 -0.0567059 
0.0247301 0.00725366 -0.00213144 -0.0851772 0.0138634 0.0122321 -0.0810194 0.00542696 0.0182093 
-0.0831454 0.00663401 0.00474 0.115304 -0.0498521 -0.0451141 0.115841 -0.0190237 -0.024252 
-0.0066038 -0.096771 0.0151387 0.0136587 -0.069896 -0.00176368 -0.00525732 -0.077466 -0.0103501 
-0.0638963 -0.0409502 -0.00719365 -0.0675252 -0.0491252 -0.0182885 -0.0484383 -0.0441092 -0.0124593 
-0.00766056 -0.0643703 -0.0262589 0.0114825 -0.0801226 -0.0465859 0.00728502 -0.093517 -0.0230987 
0.0411612 -0.0781823 -0.00280158 -0.0827946 -0.0511833 -0.00390622 -0.0951569 -0.0669084 -0.00314497 
-0.101865 -0.0620011 -0.00149863 -0.0281538 -0.0535749 0.0181783 0.0161116 0.118341 0.0354906 
0.0427241 -0.045306 0.0003432 0.0562263 -0.0504095 0.00151317 0.0645524 -0.0639223 0.000422725 
0.0727214 -0.0670201 0.00471542 -0.024692 0.0383003 0.00757831 -0.0241141 0.0376996 0.0128422 
-0.0434492 0.0582156 0.0121825 -0.0527875 0.0759683 0.010949 0.0426727 -0.0220768 5.94541e-06 
0.0860895 -0.0230561 -0.0234466 0.0217992 -0.0663759 -0.0195183 0.0312424 -0.0814667 -0.000540466 
-0.0400915 0.0367448 -0.0454347 -0.0455372 0.0423326 -0.0496268 -0.0400787 0.0478076 -0.0572792 
0.0217468 0.125184 -0.00264136 0.0261814 0.0836507 0.00675927 0.0528029 0.119251 0.0114467 
-0.0580032 -0.0652694 0.0180664 -0.0478075 -0.0348696 0.0149453 -0.0815178 -0.0594185 0.00935438 
-0.0182753 -0.021929 0.00657973 -0.0376647 -0.0630421 0.00857904 -0.0257642 0.0444371 0.020097 
-0.093316 -0.0383662 0.0071224 -0.0950113 -0.0268272 0.00799026 -0.0883978 -0.0287459 0.00270082 
0.115699 0.0264886 -0.00992407 0.0414623 0.0685871 -0.0209451 0.0623115 0.0988564 -0.0242299 
0.0660913 0.0783362 -0.0199202 0.0241712 -0.110963 0.0180557 0.0429826 0.0928263 -0.0455856 
0.0543977 0.101104 -0.0301943 0.0283934 0.0710515 -0.0155605 0.061013 0.0970093 -0.0252771 
-0.0720421 -0.0186307 0.0031069 -0.0878864 -0.0219176 0.00401082 -0.0665496 -0.0127762 0.0048322 
-0.0548708 -0.036834 0.00988201 0.0528771 0.0744671 0.0187063 0.0279621 -0.0575009 0.00972962 
0.00174142 -0.0769713 0.0141085 0.102592 -0.0650169 0.00933187 0.109674 -0.0429267 0.00931545 
0.0932405 -0.0482784 -0.00593288 0.160995 -0.00647247 0.00574342 0.127861 0.0183062 -0.00515656 
0.103571 -0.000599834 -0.012816 0.0665531 -0.104806 -0.0475299 0.0896626 -0.0582767 -0.0361719 
0.101233 -0.0317646 -0.00642298 -0.034872 0.0523285 0.00878472 -0.0607244 -0.00378235 -0.00520545 
-0.0524502 -0.00278646 -0.00298337 -0.0890457 -0.030767 -0.00641423 0.0378603 0.0864072 -0.0116339 
-0.0291291 -0.0184181 0.0107105 -0.0693386 0.0752514 -0.0146871 -0.0587876 0.0559124 -0.0110952 
-0.0623691 0.0567364 -0.01107 -0.114761 -0.0205616 0.00330263 -0.111851 -0.0154183 0.000857498 
-0.165913 -0.0403688 -0.0279195 -0.0329542 0.0114237 -0.00399383 -0.0775266 0.0137237 -0.00545653 
-0.0107337 -0.0428732 0.0149913 -0.0677615 0.061336 -0.0086562 0.116605 -0.0743247 0.0311912 
0.0667183 -0.0550144 0.0218234 0.0702719 -0.05264 0.0243092 0.0571012 0.112536 0.0272508 
0.0749642 0.117311 0.0478073 0.0709259 0.11532 0.0353294 0.0825249 0.0890462 0.0349791 
0.0615206 -0.0581257 -0.00678615 0.0743216 -0.0690406 -0.0119921 0.0613366 -0.068175 -0.00865255 
0.0788033 -0.0801513 -0.0369453 -0.0747542 0.00756419 0.0155317 -0.0771713 0.00270415 0.0128576 
-0.0824874 0.016732 -0.0646524 -0.103358 -0.00210889 -0.0883479 -0.0921898 -0.000859935 -0.064816 
-0.0426378 -0.0151224 0.00769022 -0.0935796 0.0202517 -0.0772449 0.0718958 -0.0313142 -0.0162684 
0.054665 -0.0415913 -0.00968974 0.0862573 -0.0713023 -0.0032646 0.080107 -0.0679562 0.0186816 
-0.102375 -0.0311151 -0.0269553 -0.108903 -0.0352503 -0.0245865 -0.112047 -0.037088 -0.0304325 
-0.0367416 0.0353473 0.00734032 -0.0613972 0.0425578 0.00890332 -0.0381066 0.0252171 0.00567584 
-0.0758004 -0.0416167 -0.0509511 -0.0826002 -0.0305673 -0.0528784 -0.0741361 -0.0281548 -0.0594828 
-0.113309 -0.0566549 -0.0610419 -0.0846215 -0.0901025 -0.0375648 -0.051753 -0.028953 0.0059843 
-0.09383 -0.0071708 -0.013944 -0.119817 0.0109272 -0.029429 -0.128011 -0.00977437 -0.0391575 
-0.0718209 0.00368158 -0.00338107 -0.126411 0.126129 -0.0439434 -0.0891185 0.105784 -0.0232606 
-0.0846936 0.0868483 -0.0193146 -0.0924685 0.105118 -0.0356967 -0.0849598 0.071636 -0.0165876 
-0.0987225 0.0709217 -0.028237 -0.0948782 0.0161705 0.0127777 0.0327584 0.132418 0.0245452 
-0.0831891 0.105699 -0.00272582 -0.0561945 0.0689625 -0.0118301 -0.0905732 0.0996883 -0.0137535 
-0.080392 0.0805635 -0.0169613 -0.0679374 0.0732702 -0.000592348 -0.105662 0.0693579 0.00360362 
-0.0608694 0.0769304 0.00687302 -0.0258625 -0.09054 -0.0238824 -0.0440419 -0.0871606 -0.0350504 
0.0361073 -0.0820719 -0.0306372 0.0135626 -0.088562 -0.0249343 0.0179188 -0.0610617 -0.0336492 
0.0590203 -0.0648243 -0.00429869 -0.0634994 0.0481265 -0.0609432 0.0975324 0.00516 -0.0122066 
-0.0987986 0.114415 0.0214024 -0.028033 -0.087571 -0.0101775 0.00231504 0.029459 0.0105637 
0.0510098 -0.0438812 0.00153635 -0.0614019 0.038724 -0.0236974 -0.0546493 0.0577466 -0.0299934 
-0.0740218 0.0445097 -0.0386469 0.00598032 -0.12941 -0.0300426 0.0169414 -0.113394 -0.0133601 
-0.0853353 0.078353 -0.0261623 -0.0475219 0.0370913 -0.0252592 -0.0618512 0.0410334 -0.0354069 
-0.0466818 0.0387187 -0.0304735 0.0337745 -0.0417815 0.00695078 -0.0922162 -0.0261042 -0.0261678 
-0.0929507 0.100964 -0.0455908 -0.101797 0.0831571 -0.0458615 -0.131643 0.0245602 -0.0167683 
-0.0702525 0.00647454 -0.00605608 -0.06153 0.00709685 0.000192079 -0.115951 0.030483 0.00141673 
-0.0682152 0.0551739 -0.0434476 0.0541392 -0.0554259 -0.00157095 0.080278 -0.0816046 -0.00729915 
-0.0988854 0.0631335 -0.0137444 -0.085571 0.0828158 -0.0328625 -0.0746447 0.0273666 0.0064121 
0.035363 -0.092526 -0.0186194 0.0478056 -0.118354 -0.022003 0.034784 -0.0594268 -0.0141024 
0.104573 0.0145147 -0.0139105 0.0351842 0.0569799 0.0170667 0.0669849 0.0339724 0.0143564 
0.0879254 0.0484329 0.0211108 0.0342179 0.0204314 0.00414716 0.0765145 -0.0838552 -0.00821871 
0.0548339 -0.0567611 -0.00123506 0.0375017 -0.0577832 -0.00555433 -0.106227 -0.00014751 0.0223106 
-0.0777678 0.00547524 0.0120123 -0.0661944 -0.00582787 0.00561794 -0.103416 0.0552314 -0.0702501 
-0.083244 0.0419077 -0.0582005 -0.108484 0.0253125 -0.0601823 -0.0818634 0.0191148 -0.0511416 
-0.0597181 0.00368517 0.016673 -0.0848204 0.0756647 -0.060085 0.0627858 0.0875897 0.0244647 
0.0653321 0.0460307 0.0146106 -0.107919 0.00414176 -0.0516006 -0.112174 -0.00447086 -0.0466443 
-0.124962 -0.0172886 -0.0357382 -0.131573 -0.0181343 -0.0283811 0.103948 0.0526826 0.00675455 
0.0718803 0.0534028 0.0175115 -0.110408 -0.0294792 -0.0323479 -0.105365 -0.0217566 -0.0266105 
-0.132268 -0.042159 -0.0461704 -0.0904749 -0.0292777 -0.0300367 -0.107533 -0.0397143 -0.0380328 
-0.104077 -0.0889495 -0.0669049 -0.0973707 -0.080613 -0.0671018 -0.0624664 -0.091513 -0.069044 
-0.0513931 0.0520783 -0.0569545 -0.0553304 0.0442168 -0.0485192 -0.0358833 0.0565363 -0.0536048 
-0.0547678 0.0334448 -0.0376671 -0.0489408 0.0289481 -0.0284966 0.0386891 0.0494425 0.0175725 
-0.0804898 -0.00742314 0.0124967 -0.121614 0.00017651 0.0229544 -0.0652474 0.0879538 0.0118606 
-0.0308402 0.0389003 0.00637645 -0.0482925 0.0662721 0.00756821 -0.068961 0.0687408 0.00928881 
-0.0727438 0.0507983 -0.0463289 -0.0396471 -0.0387242 -0.0157174 -0.0392654 -0.026317 -0.0237856 
-0.0417511 -0.0273216 -0.022633 -0.124 -0.0696648 -0.0615031 -0.103046 -0.0461155 -0.0449538 
-0.105998 -0.0667923 -0.0611407 -0.069967 -0.0793888 -0.0546177 -0.0568813 -0.0455675 -0.0453163 
-0.0420358 -0.0417751 -0.0395235 -0.0574179 -0.0329927 -0.0537015 -0.0582557 -0.0462274 -0.0552976 
-0.0302171 0.0689187 -0.0713588 -0.0236509 0.0689529 -0.0622289 -0.0509798 -0.0908904 -0.0433677 
-0.0741644 -0.0914076 -0.0679063 -0.0584874 0.035541 -0.0417376 -0.044037 0.0298482 -0.0299208 
-0.0547142 0.0357686 -0.0388593 0.0304784 0.12785 0.00716795 -0.0108172 0.1039 0.0136464 
-0.0930798 0.0135235 -0.0362142 -0.0424026 0.0449746 -0.0266695 -0.0433827 0.0452716 -0.0298212 
-0.0206973 0.051865 -0.0288682 -0.0392815 0.0767676 -0.0345042 -0.0434986 0.0596654 -0.0496382 
-0.0739121 0.0453739 -0.0410211 -0.0752667 0.0342074 -0.0391106 -0.0633484 0.052315 -0.0522884 
-0.0355164 -0.0721693 -0.00644595 -0.0332616 -0.0724976 0.00574209 -0.0145013 -0.0517673 -0.00381951 
-0.0447463 -0.0772262 -0.00346651 -0.0178583 -0.0861279 0.000717171 -0.00839834 -0.0612121 -0.0114294 
0.109605 0.0544285 0.00337758 0.0627522 0.125292 0.0241231 0.0903575 0.128931 0.0420375 
-0.0706345 -0.0248626 -0.0128475 -0.0698589 -0.0154605 -0.0111811 0.00704588 -0.087258 -0.0230039 
-0.0261819 -0.0890274 0.0121904 -0.0804511 -0.0221887 -0.0176761 -0.108309 -0.0218686 -0.0221793 
-0.0918831 -0.0276891 -0.0233142 -0.0784946 -0.000673676 0.00537286 -0.0967678 0.00430863 0.0126724 
-0.10777 0.00148255 -0.00763232 -0.103092 -0.0165578 -0.00985095 0.0505893 -0.0617348 -0.00221034 
0.0347437 -0.0635322 -0.0233301 0.120076 0.0467507 0.0171155 0.106384 0.0306204 0.0149033 
-0.0991935 0.00164515 0.00404893 -0.0584596 0.0539387 -0.0343527 -0.10849 -0.00364648 -0.00607942 
-0.0403012 0.0456723 -0.0432028 -0.0369373 0.0716607 -0.0548891 -0.0212286 -0.0536649 -0.041008 
-0.02189 -0.101492 -0.0852451 -0.00206335 -0.0740741 -0.0446821 -0.0570967 -0.018175 -0.0140944 
-0.0754694 -0.0317922 -0.0196016 -0.072799 -0.00493682 -0.0116977 0.0630748 0.0651082 0.0191854 
0.0456942 0.0562337 0.017599 -0.0339179 0.0762562 -0.0642612 -0.0252212 -0.0660075 -0.0143705 
-0.0689512 0.0680216 0.00486224 -0.0528324 0.0673785 0.00506898 0.0594325 -0.0845302 -0.0372027 
-0.016412 0.00291121 -0.00649523 -0.0631475 0.00197843 -0.00615215 -0.0941637 0.00833741 0.00305988 
0.0424873 -0.0527362 -0.0240405 0.0386326 -0.0358475 -0.0228894 -0.0434641 -0.0705265 -0.0539093 
0.000155251 0.0843736 -0.00816674 -0.0281574 0.0612959 -0.0104297 -0.00931038 0.125869 -0.00461345 
-0.0632349 -0.0227218 -0.0177918 0.0160587 -0.0158798 -3.45353e-05 -0.0146841 0.0713603 -0.0498371 
-0.0106204 0.0159904 0.0032282 0.0269394 -0.0365298 -0.0224891 -0.0644682 -0.0833127 -0.0632231 
-0.062125 0.0336476 -0.053465 -0.0330835 0.0182396 -0.0290781 -0.0538108 0.0333534 -0.0440409 
0.0841241 -0.0672636 -0.0159069 0.0690607 -0.0498925 -0.0462703 -0.0512422 0.0291428 -0.0398743 
-0.0685817 -0.0848369 -0.00642864 -0.0854706 -0.0747638 -0.023868 -0.0586091 -0.071717 -0.0179062 
0.0115122 0.0719367 -0.0486892 0.0128428 0.0694361 -0.0416841 0.0232033 0.0673996 -0.040854 
-0.0475265 0.0662058 -0.00726622 -0.0433867 0.0719064 0.00238696 -0.0434822 0.0443995 0.0013803 
-0.0165884 -0.0922296 -0.0447427 -0.00140987 -0.0529324 -0.035184 -0.0143464 -0.072098 -0.0399949 
-0.0260771 -0.0790284 -0.0555231 -0.073974 -0.0290689 -0.0283106 0.0679527 -0.0356356 0.011168 
0.0552855 -0.0431027 0.00922811 0.0961004 -0.0052298 0.0127624 0.0821409 -0.0194851 0.00949412 
0.145173 -0.0339547 0.0293875 0.117671 -0.0360061 0.012021 -0.106985 0.059319 -0.0284453 
0.120096 0.0201633 0.019543 0.0935714 0.00833137 0.0122451 0.0885448 0.0225946 0.0129867 
0.0125614 0.0469284 -0.0250056 -0.0792354 -0.0652238 -0.0358347 -0.0487559 -0.063192 -0.0134443 
-0.0450354 -0.0856368 -0.0234432 -0.0837414 -0.110344 -0.0360363 -0.0392826 -0.0985283 -0.0312092 
-0.0936919 -0.101568 -0.0111038 -0.0996682 -0.0842313 -0.0336984 0.054281 -0.091587 -0.0328132 
0.0484323 -0.0641178 -0.020482 0.04524 -0.0762153 -0.0302144 0.0322955 -0.0943074 -0.0392549 
0.0394054 -0.0857425 -0.0223789 0.0515753 0.119518 0.0206696 0.0207731 -0.0623075 -0.0168036 
0.0194452 -0.0502267 -0.00606299 0.0213815 -0.0708868 0.00068482 0.035322 -0.0654678 0.0112227 
0.0273106 -0.0448345 0.00410644 0.0602058 -0.0732952 0.0116786 0.0986686 0.0818283 0.0138596 
0.0896825 0.0939565 -0.000727593 0.107001 0.0940078 0.0221304 0.0732297 0.0805591 -0.0100547 
0.0627742 0.0918904 0.0430243 0.0934886 0.0904559 0.0313785 0.104989 0.106824 0.0328951 
-0.0447091 -0.0617001 0.00225374 0.0468976 -0.0404689 -0.00863818 0.0623843 -0.0735797 -0.00671812 
0.0411684 0.0397747 0.000208399 0.0392077 0.0486026 -0.00368702 0.0546842 0.0538965 -0.00480723 
0.0483656 0.0703955 -0.00710357 0.0586468 0.0573535 -0.00319122 -0.05045 0.0315543 -0.0621851 
-0.0591483 0.0507912 -0.0730858 -0.0503373 0.0605533 -0.0763158 -0.0629687 0.0778994 -0.0889995 
0.0260837 -0.0898877 -0.0405536 0.128447 0.0786074 0.0178942 0.136862 0.027891 0.0124053 
0.102611 0.0364313 0.0094271 0.0317958 0.0254171 -0.0554554 0.040739 0.0252974 -0.0951843 
0.016033 0.0332542 -0.10795 -0.0591727 0.0530737 0.00519184 0.14086 0.0410699 0.0201404 
0.0581109 -0.0620064 -0.0033536 0.118695 0.0345565 0.0168348 0.101468 0.0514484 0.00558757 
0.0914981 0.0391372 0.00518796 0.02216 0.114675 -0.0667179 0.00441326 0.10895 -0.0734575 
-0.00881245 0.126118 -0.0687433 -0.0933673 -0.0229054 -0.0689022 -0.0854129 -0.0338522 -0.0645109 
-0.087249 -0.0206569 -0.0710271 -0.119159 -0.0344378 -0.0717217 0.103923 -0.0524959 0.0450882 
0.0637434 -0.0347047 0.0177177 0.131128 -0.0452369 0.0325188 0.0716876 -0.00589239 0.0230084 
0.104688 -0.000715804 0.010203 0.0771632 -0.00132646 -0.014934 0.1216 -0.0553402 0.0308869 
0.113727 -0.0542955 0.023873 0.10388 -0.0484919 0.0300794 0.01896 0.146266 -0.0462949 
0.102169 0.0491951 0.00838165 0.105639 0.0586061 -0.00319723 0.105349 0.0867451 -0.0051365 
0.0879619 0.0427038 -0.00121706 -0.0768481 0.0341491 -0.0547486 0.0584725 0.0487091 -0.0459354 
0.0439684 0.051002 -0.0494411 0.052987 0.0613162 -0.0458379 0.125172 -0.049888 0.0336021 
0.116517 -0.0452794 0.0194097 0.130752 -0.0184354 0.0250928 0.0133964 0.0778549 -0.066277 
0.0111675 0.0696598 -0.0565135 0.0345995 0.0889683 -0.0659094 -0.0107617 0.0811657 -0.0758556 
0.0788078 0.0452284 -0.0354648 0.0645192 0.040075 -0.0440921 0.0665321 0.0510413 -0.0340987 
0.0554905 -0.076949 0.0172502 0.0508966 -0.0597539 0.0169599 0.0448886 -0.0698996 0.0137946 
0.0639984 -0.0701136 0.0252992 0.0287153 -0.0185711 -0.00369722 0.0406443 -0.0439337 0.011581 
0.0404849 0.0458879 -0.0238478 0.0551489 0.054642 -0.0303566 0.0587161 0.0598488 -0.0242976 
0.0537207 0.0674877 -0.0310005 0.0840611 0.0858163 -0.050543 0.065522 0.0487745 -0.0300756 
0.0441326 0.0801272 -0.0444358 -0.0438166 -0.0558985 -0.0437071 -0.0611111 -0.0531193 -0.0502312 
0.0558361 0.0794603 0.0265746 0.0263338 0.0476632 0.0128399 0.0403675 0.0683313 0.0203614 
-0.075674 -0.0340958 -0.0714046 -0.054473 -0.0303462 -0.0447689 0.0642316 -0.0254976 -0.0145229 
0.0780989 -0.0166971 -0.0166855 0.095106 -0.0146042 0.0221097 -0.0880977 -0.0641788 -0.0357213 
0.00375356 -0.0309673 -0.0153785 -0.0559492 -0.0576843 -0.0369128 -0.0404096 -0.0726393 -0.0399782 
0.0774306 -0.0896658 -0.00121643 0.0629228 -0.0613945 0.000927672 0.0455488 -0.0510593 0.000553632 
0.0420085 0.122165 0.00108376 -0.0169876 0.0230685 0.00496751 -0.0593796 -0.00517926 -0.0236424 
-0.0632117 -0.00242257 -0.0217577 -0.095096 -0.0214635 -0.0322391 -0.0844396 -0.0956643 -0.0768473 
-0.0651056 -0.0554066 -0.0426839 0.0133838 0.0720499 0.00287358 0.0131638 0.0936201 -0.0114513 
-0.0624252 0.0262179 -0.0497934 0.00679053 0.0697167 -0.0557853 -0.00788104 0.070957 -0.0636541 
-0.0817177 -0.0616847 -0.0557538 0.0186365 -0.113813 -0.0790258 -0.0706239 0.0576399 -0.0310763 
-0.0661264 -0.0422068 0.000814479 -0.0112781 -0.0865271 -0.064048 0.0696536 0.0760124 0.0197679 
0.0927824 0.0958709 0.0261349 0.0516361 -0.0663037 0.00143895 -0.0431094 -0.0946803 -0.058919 
0.0474797 -0.0843781 -0.019521 -0.0823493 -0.0416819 -0.0639468 -0.106109 -0.049006 -0.0699562 
0.0318568 0.0532017 0.0179413 0.0754495 0.109324 0.00877185 0.0229179 0.0640913 -0.0487815 
0.0215485 0.113769 -0.0210095 -0.0881574 0.0249623 -0.0698405 -0.0868555 0.0359478 -0.0749348 
-0.0143734 0.0360286 0.0135961 0.00550786 0.0564028 -0.000821718 -0.0807268 -0.00191325 -0.0609747 
0.0794058 -0.0271617 0.034813 -0.0325227 0.0695901 -0.0735026 -0.00940497 0.0772874 -0.0641191 