# vtk DataFile Version 5.1
vtk output
ASCII
DATASET UNSTRUCTURED_GRID
POINTS 2395 float
-0.842581 2.37825 -1.77636e-15 -2.78442 0.998845 -1.77636e-15 -1.11173 2.20654 -1.77636e-15 
-1.37337 2.01556 -1.77636e-15 -1.61945 1.80592 -1.77636e-15 -1.82757 1.53587 -1.77636e-15 
-1.99549 1.22455 -1.77636e-15 -2.09986 0.899516 -1.77636e-15 -2.13219 0.519883 -1.77636e-15 
-2.12633 0.158951 -1.77636e-15 -2.10839 -0.202112 -1.77636e-15 -2.05816 -0.576879 -1.77636e-15 
-2.01576 -0.952629 0 -1.92681 -1.32083 0 -1.74903 -1.646 0 
-1.55899 -1.95817 0 -1.33006 -2.2325 0 -1.07983 -2.4801 0 
-0.777004 -2.66187 0 -0.462156 -2.714 0 -0.0736301 -2.67 0 
0.241435 -2.40318 0 0.53307 -2.22338 0 0.837987 -2.01832 0 
1.1481 -1.87852 0 1.54284 -1.85319 0 1.79622 -1.6855 0 
1.99714 -1.53439 0 2.14917 -1.29682 0 2.3106 -1.01407 0 
2.39959 -0.650737 0 2.49741 -0.31932 -1.77636e-15 2.46563 0.0281096 -1.77636e-15 
2.39149 0.348265 -1.77636e-15 2.24851 0.642816 -1.77636e-15 2.04986 0.943679 -0.00695715 
1.83221 1.14826 -1.77636e-15 1.63642 1.3859 -1.77636e-15 1.42665 1.65959 0 
1.1891 1.87752 -1.77636e-15 0.934047 2.10286 -1.77636e-15 0.675044 2.35992 -1.77636e-15 
0.385465 2.56953 -1.77636e-15 0.0851956 2.73618 -1.77636e-15 -0.246426 2.71967 -1.77636e-15 
-0.559486 2.56831 -1.77636e-15 -2.68024 1.36792 -1.77636e-15 -2.51994 1.70235 -1.77636e-15 
-2.30594 1.99087 -1.77636e-15 -2.09647 2.30152 -1.77636e-15 -1.87365 2.57231 -1.77636e-15 
-1.6468 2.82584 -1.77636e-15 -1.37549 3.07288 -1.77636e-15 -1.06544 3.2351 -1.77636e-15 
-0.739718 3.32731 -1.77636e-15 -0.380663 3.38043 -1.77636e-15 -0.0363356 3.39546 -1.77636e-15 
0.316524 3.34085 -1.77636e-15 0.666738 3.24227 -1.77636e-15 0.989357 3.04442 -1.77636e-15 
1.33536 2.82795 -1.77636e-15 1.68023 2.63211 -1.77636e-15 2.05765 2.46116 -1.77636e-15 
2.41199 2.30405 -1.77636e-15 2.64775 2.12589 -1.77636e-15 2.83071 1.85287 -0.0139473 
2.9736 1.53982 -1.77636e-15 3.07881 1.20871 -0.0252358 3.11562 0.886979 -0.136935 
3.12087 0.536815 -1.77636e-15 3.05349 0.208814 -0.0856901 2.99488 -0.12777 -0.0457003 
2.94556 -0.477133 -0.0993044 2.87352 -0.83123 -0.103853 2.76909 -1.16223 -0.0431717 
2.63174 -1.4495 0 2.45562 -1.70842 0 2.2452 -1.95188 -0.0221646 
2.04675 -2.17941 -0.00232732 1.84006 -2.38982 0 1.61342 -2.59242 0 
1.35609 -2.8128 0 1.09792 -2.99913 0 0.773223 -3.25576 0 
0.411645 -3.52248 0 -0.0178623 -3.69132 0 -0.400605 -3.6403 0 
-0.732785 -3.53895 0 -1.07828 -3.44035 0 -1.43544 -3.29993 0 
-1.72026 -3.08282 0 -1.99744 -2.81928 0 -2.23927 -2.51303 0 
-2.44004 -2.18042 0 -2.60544 -1.83055 0 -2.73535 -1.47318 0 
-2.84521 -1.12422 0 -2.93957 -0.773231 0 -2.98436 -0.423824 -1.77636e-15 
-2.97969 -0.080649 -1.77636e-15 -2.9198 0.263209 -1.77636e-15 -2.86104 0.625234 -1.77636e-15 
-1.11484 -2.68075 -1.24426 -1.04864 -2.72693 -0.92077 -1.2936 -2.55186 -1.06711 
0.197656 2.9497 -0.818885 0.110862 2.85105 -0.371447 0.398487 2.73342 -0.473288 
-0.287171 -2.82422 -0.199989 0.0388674 -2.68944 -0.20417 2.1291 0.963173 -0.379959 
1.97864 1.21461 -0.24959 -1.78877 -1.71476 -1.69206 -1.85707 -1.72856 -1.33663 
-1.90462 -1.45888 -1.61645 -1.65065 -1.97217 -1.5374 -2.07689 -0.0778485 -0.265983 
-2.0666 -0.477036 -0.288378 0.351008 -2.45926 -0.26848 0.528086 2.54385 -0.263954 
0.771752 2.3389 -0.27612 0.597821 2.57198 -0.565924 -2.14146 0.436533 -0.945885 
-2.08611 0.33819 -0.597324 -2.09982 0.684436 -0.700656 -2.11497 0.110414 -0.877548 
0.642041 -2.19715 -0.23505 0.908648 -2.0317 -0.21616 -0.79616 2.84861 -0.917371 
-0.677359 3.03662 -1.13425 -0.880186 2.89586 -1.23093 -1.29051 -2.55022 -0.803286 
0.178219 -2.64222 -0.745316 0.363497 -2.52647 -0.802349 0.314134 -2.57049 -0.547351 
0.511057 -2.38649 -0.483306 1.82114 1.3685 -0.100328 1.69016 1.59524 -0.146661 
-2.07907 1.36908 -0.829674 -2.00104 1.69466 -0.943013 -2.09126 1.49578 -1.21032 
-0.526634 -2.91831 -0.727857 -0.790195 -2.86677 -0.578233 -0.755771 -2.9131 -0.861043 
-2.03727 1.51441 -0.558329 -2.00939 -1.166 -0.491589 -1.92861 -1.38901 -0.257867 
-2.02248 -1.07134 -0.204371 2.25881 0.688079 -0.572732 2.15482 0.956244 -0.853967 
-1.91072 -1.45198 -0.542089 2.43068 0.0152792 -0.43315 2.41899 -0.236066 -0.526912 
-2.05239 -0.772501 -0.172162 -1.84507 1.33859 -3.01447 -2.1028 1.20106 -2.62078 
-1.83097 1.56508 -2.74814 2.08747 1.24526 -1.65251 1.96257 1.51319 -1.63259 
1.98056 1.40472 -1.41041 -2.07647 -0.83277 -0.450752 2.3926 0.269726 -0.350918 
2.41787 -0.605827 -0.485182 0.894697 -2.06601 -0.512278 0.981161 -1.98383 -0.814849 
1.09663 -1.92097 -0.413006 -0.431362 2.85992 -0.356374 0.728336 -2.21908 -0.728985 
0.522372 -2.41914 -1.07696 0.294526 -2.56025 -1.13318 -0.928423 0.198799 -4.68479 
-1.08979 0.270489 -4.495 -0.912654 0.425051 -4.75891 0.395126 -2.47888 -1.77046 
0.270376 -2.53813 -1.43344 0.0504189 -2.57237 -1.78182 2.07601 1.41553 -1.91241 
-1.35583 -2.43208 -1.35731 -1.17491 -2.58028 -1.57747 2.17029 1.16671 -1.98639 
2.1698 1.0077 -1.74939 1.4973 1.20945 -5.21222 1.71623 1.01852 -5.26008 
1.50312 1.06022 -5.41045 1.94474 -1.4398 -0.443369 2.14215 -1.18268 -0.423766 
1.64367 0.847422 -5.52822 2.27472 0.594731 -0.956284 2.19608 0.771268 -1.24807 
1.74557 1.73905 -0.928595 1.87593 1.54785 -1.10738 1.77262 1.76565 -1.26258 
-0.641313 2.84899 -0.599798 -0.910392 2.67202 -0.596161 -1.74314 -1.50371 -2.19834 
-1.54885 -1.8027 -2.26884 -1.66179 -1.77636 -2.01977 1.8746 1.52085 -0.757811 
2.3728 -0.342585 -0.86146 -1.62506 -1.52291 -2.56204 -1.64215 -1.93922 -1.82465 
-0.487692 3.04942 -0.888721 -2.09331 -0.588988 -0.649748 -2.13996 -0.640671 -0.993201 
-2.0964 -0.951406 -0.802172 0.098893 -2.69132 -0.511374 -2.16408 0.989945 -1.22695 
-2.14114 0.912387 -0.957583 -2.14285 1.19764 -1.04223 -1.05736 -0.00305905 -4.51913 
2.33413 0.491903 -0.36912 -2.24416 1.00328 -1.57773 -2.23679 0.74992 -1.33816 
-2.31342 0.758609 -1.66696 2.24723 -0.662939 -1.06841 2.29541 -0.272979 -1.31399 
0.662247 -1.97751 -3.35273 0.6591 -1.93407 -2.97798 0.482153 -1.95449 -3.19135 
-1.54526 -2.21625 -1.39941 -1.4966 -2.16869 -1.74811 -1.39883 -2.35559 -1.59954 
-0.706155 -2.69677 -1.93261 -0.434069 -2.62266 -2.06694 -0.481132 -2.76087 -1.73229 
-0.0534482 -2.79699 -0.855286 -1.64528 -2.0205 -1.22569 -1.50356 -2.31398 -1.04579 
-1.64979 -2.02997 -0.852379 -0.952898 -2.69647 -0.319713 -0.204161 3.04694 -0.623882 
1.39713 -1.58168 -2.12986 1.52031 -1.44451 -2.01532 1.33722 -1.62475 -1.91398 
1.58674 -1.37232 -2.31626 -1.23512 2.31605 -0.386326 -0.973946 2.46597 -0.274883 
-1.12635 2.47535 -0.601352 -1.312 2.34158 -0.731979 2.3068 -0.908559 -0.458353 
2.35112 -0.774922 -0.74959 -0.210367 -2.71949 -1.85098 -0.259162 -2.90932 -0.668811 
-0.399821 1.54149 -4.70905 -0.481141 1.74824 -4.48391 -0.283586 1.71684 -4.71136 
-0.0461418 3.12851 -1.93054 0.194942 3.1028 -1.65156 0.382805 3.04825 -1.9732 
-1.28343 -2.52321 -0.47613 -1.45207 -2.23866 -0.315801 -1.49853 -2.32233 -0.644933 
-1.24725 -2.47268 -0.208279 -1.09352 -2.71692 -0.601335 -0.684214 2.61468 -0.279369 
-1.87542 -1.67526 -0.744541 -1.97559 -1.34024 -0.808632 -1.95471 -1.54127 -1.04252 
2.3508 0.347471 -0.666664 1.19584 2.41593 -3.69003 1.0257 2.58621 -3.29427 
1.33882 2.33324 -3.40933 0.927106 -1.90444 -3.2322 0.878502 2.53052 -3.7031 
0.761501 2.77514 -3.34897 0.63389 2.88521 -3.01218 0.905242 2.74057 -2.95468 
-2.11377 -1.01845 -1.35586 -2.04816 -1.18767 -1.09576 -2.11751 -0.914451 -1.11514 
-1.63122 -2.07426 -0.54517 0.427267 2.98689 -1.59488 -0.161146 -2.84295 -0.410038 
-0.462216 -2.92377 -0.439413 2.00434 -0.840213 -2.41781 2.14029 -0.503064 -2.3365 
2.04765 -0.690894 -1.97984 2.29024 0.301876 -1.79396 2.27263 0.453903 -1.36421 
2.28884 0.103934 -1.38471 1.9965 -1.35916 -0.81964 2.2215 -1.05145 -0.791916 
2.162 -0.388147 -1.9171 -1.46341 2.18567 -0.513108 -2.12372 0.574258 -0.278527 
-2.08375 0.244292 -0.247797 -2.00113 -1.35426 -1.35439 0.721698 2.95638 -2.7445 
-1.66347 -1.91062 -0.309987 -0.755181 2.90311 -2.10692 -0.993795 2.67613 -2.01142 
-0.974523 2.8217 -1.76979 -2.20995 -0.682986 -1.32312 -2.26634 -0.323279 -1.43402 
-2.18441 -0.576186 -1.79649 -2.05581 1.412 -0.279409 -2.07211 1.19119 -0.454597 
-0.647053 -2.82452 -0.237882 -0.951118 2.72157 -2.32772 2.05585 -0.976633 -3.10938 
1.86635 -1.24405 -3.17339 2.01795 -1.19818 -3.5147 0.695284 2.82102 -1.70172 
0.962491 2.67432 -1.47294 1.02398 2.74964 -1.81529 1.26638 2.38352 -1.49834 
1.69464 -1.23686 -1.82958 1.85693 -1.07781 -1.60244 1.66683 -1.33608 -1.47376 
1.89623 -1.11853 -1.23522 -2.21014 0.462459 -1.25755 -2.14257 0.699417 -1.07128 
-1.40009 0.520874 -4.11886 -1.28453 0.157981 -4.31038 -1.55134 0.180695 -3.96842 
-1.81922 -1.65919 -0.407549 -1.12026 0.543505 -4.47193 2.14046 -0.639976 -1.6801 
2.00795 -0.874507 -1.7273 1.88732 -0.988111 -2.0439 1.79445 -1.18874 -2.78708 
-1.90384 -1.19028 -2.118 -2.03913 -0.805838 -2.13128 -1.90187 -0.94596 -2.43236 
-1.74504 1.90798 -0.393329 -1.92483 1.75854 -0.632012 -1.88658 1.68323 -0.254392 
-1.34465 -0.780585 -3.85275 -1.49724 -0.460756 -3.84886 -1.29617 -0.503775 -4.10358 
-1.52957 -0.759323 -3.54933 -1.24784 -2.36749 -1.93845 -1.78927 -1.87217 -0.549468 
-2.27801 0.497013 -2.28427 -2.2662 0.77139 -2.49999 -2.17988 0.42435 -2.66393 
-2.24775 0.729517 -2.20626 -1.35404 2.23683 -2.36843 -1.46058 2.29538 -1.89355 
-1.19588 2.48412 -2.1501 -1.67996 2.02764 -2.10651 -1.04455 2.50652 -2.54635 
-1.15405 2.34805 -2.82116 -2.17246 1.26991 -1.40914 -0.147658 3.12902 -1.01515 
-1.49794 2.3019 -1.46707 -1.69279 2.12369 -1.68692 -1.21663 2.51618 -1.70044 
-1.8953 1.91693 -1.80312 -1.79687 2.03239 -1.43297 -2.00639 1.76706 -1.43628 
-1.67106 2.11935 -1.12548 -0.827137 -2.73622 -1.67782 -0.974189 -2.57069 -1.97228 
1.20314 -1.79905 -0.61486 1.40858 -1.62496 -0.768668 1.59499 -1.80973 -0.372985 
1.21519 -1.78023 -0.950684 -0.669272 1.4798 -4.54558 2.40294 0.00179153 -0.797382 
-1.06634 2.58348 -0.987508 -0.851996 -2.86032 -1.1299 -0.141354 2.91535 -0.270101 
1.73131 -1.18357 -2.09805 -0.996879 2.41593 -3.09062 -0.778683 2.58362 -3.29251 
-0.90806 2.36062 -3.43012 -0.584753 -2.85644 -1.38739 -0.461732 -2.92815 -1.01283 
[...]
POINT_DATA 2395
FIELD FieldData 1
Nodal_area 3 2395 float
0 0 0 0 0 0 0 0 0 
0 0 0 0 0 0 0 0 0 
0 0 0 0 0 0 0 0 0 
0 0 0 0 0 0 0 0 0 
0 0 0 0 0 0 0 0 0 
0 0 0 0 0 0 0 0 0 
0 0 0 0 0 0 0 0 0 
0 0 0 0 0 0 0 0 0 
0 0 0 0 0 0 0 0 0 
0 0 0 0 0 0 0 0 0 
0 0 0 0 0 0 0 0 0 
0 0 0 0 0 0 0 0 0 
0 0 0 0 0 0 0 0 0 
0 0 0 0 0 0 0 0 0 
0 0 0 0 0 0 0 0 0 
0 0 0 0 0 0 0 0 0 
0 0 0 0 0 0 0 0 0 
0 0 0 0 0 0 0 0 0 
0 0 0 0 0 0 0 0 0 
0 0 0 0 0 0 0 0 0 
0 0 0 0 0 0 0 0 0 
0 0 0 0 0 0 0 0 0 
0 0 0 0 0 0 0 0 0 
0 0 0 0 0 0 0 0 0 
0 0 0 0 0 0 0 0 0 
0 0 0 0 0 0 0 0 0 
0 0 0 0 0 0 0 0 0 
0 0 0 0 0 0 0 0 0 
0 0 0 0 0 0 0 0 0 
0 0 0 0 0 0 0 0 0 
0 0 0 0 0 0 0 0 0 
0 0 0 0 0 0 0 0 0 
0 0 0 0 0 0 0 0 0 
0 0 0 0 0 0 0 0 0 
-0.0530562 -0.0704087 -0.00798683 -0.0591333 -0.0898298 0.00023123 -0.048206 -0.0523907 -0.00357289 
0.0701594 0.140412 0.0358951 0.0269182 0.0630521 0.0193023 0.0419466 0.0564107 0.013983 
0.00685237 -0.0357383 0.0124484 0.0243323 -0.038965 0.00784774 0.0605132 0.0262669 0.00519758 
0.0422644 0.0206566 0.0110684 -0.079738 -0.0422256 -0.0159212 -0.105093 -0.0564039 -0.0143812 
-0.07845 -0.0346422 -0.0133718 -0.0758658 -0.04735 -0.0103854 -0.0465053 -0.000481532 0.000401412 
-0.0648124 -0.000621373 0.00447611 0.0352433 -0.0456347 0.01163 0.0189311 0.0210774 0.0063353 
0.0379485 0.0495693 0.0136969 0.0614308 0.0719183 0.0187715 -0.087981 0.00366294 0.0181517 
-0.112895 -0.00549529 0.00539759 -0.125778 -0.00487722 0.00384591 -0.0974828 0.00420111 0.0250291 
0.0197222 -0.0255649 0.00760906 0.0190466 -0.0276509 0.00369472 -0.0669336 0.0798232 0.0277161 
-0.0366786 0.0588605 0.0162252 -0.0703562 0.0669491 0.0125947 -0.064561 -0.0679995 0.00160914 
0.0259591 -0.0419663 0.0025451 0.0653978 -0.0836582 0.0023657 0.0308552 -0.043202 0.00526557 
0.0544479 -0.0630772 0.0102465 0.0222816 0.0139918 0.0107073 0.0409026 0.038771 0.0169241 
-0.101304 0.0216725 0.00984114 -0.111775 0.0531777 0.0115311 -0.0963924 0.0292217 0.011944 
-0.0035377 -0.0637319 0.00256834 -0.0403036 -0.100695 0.0160552 -0.0208026 -0.0658107 0.00131641 
-0.0887682 0.0301704 0.00830375 -0.0954003 -0.0273634 0.00630753 -0.0386073 -0.0136358 0.00131322 
-0.0432222 -0.00901685 0.00261899 0.0779701 0.0267465 -0.00167343 0.137946 0.05355 -0.0020798 
-0.063577 -0.0218242 0.00572222 0.0501936 0.00607018 -0.0041304 0.0544694 -0.0018471 -0.00607846 
-0.0284384 -0.00171142 0.0028283 -0.0871952 0.0582211 -0.0517817 -0.164767 0.0703648 -0.0621877 
-0.0763454 0.0576681 -0.0391388 0.0692223 0.0254089 0.0119946 0.0572886 0.0274756 0.0124636 
0.0714231 0.0335491 0.00774363 -0.0990641 -0.00935165 0.00813503 0.0259117 0.00552696 -0.00206943 
0.0576599 -0.00777676 -0.00726306 0.0412918 -0.0525944 0.00188565 0.0767582 -0.0830843 -6.2586e-05 
0.0289697 -0.0478308 -0.00862152 -0.0235998 0.0487644 0.0247239 0.0785276 -0.0920286 0.0083343 
0.0659474 -0.0883567 -0.00398114 0.0374115 -0.0555311 -0.00700709 -0.0507104 -0.00417304 -0.0399328 
-0.0467126 -0.00293407 -0.041007 -0.0724655 0.00713227 -0.0610369 0.0375711 -0.0725149 -0.0171975 
0.0649954 -0.122846 -0.0122157 0.0429375 -0.0999395 -0.01964 0.0666288 0.0259754 0.0143103 
-0.0626195 -0.0602106 -0.00919985 -0.0721729 -0.0964762 -0.0275923 0.0885602 0.0261273 0.0153712 
0.063416 0.0185388 0.0100259 0.0368251 0.0634657 -0.0484008 0.0514102 0.0633251 -0.0475927 
0.0268848 0.0468813 -0.0413881 0.0384137 -0.0434039 -0.0143626 0.051938 -0.0363665 -0.00126268 
0.0455424 0.0660678 -0.062596 0.123676 0.0331116 -0.00813418 0.115149 0.0349174 0.000981278 
0.0805382 0.0560385 0.0111425 0.071928 0.0401343 0.00599603 0.06439 0.0358142 0.0108319 
-0.0505362 0.074283 0.0343294 -0.0662032 0.0855156 0.0323296 -0.0863054 -0.0445441 -0.0287236 
-0.0724984 -0.0458038 -0.0290506 -0.0731374 -0.0413307 -0.026009 0.089868 0.0574364 0.00365017 
0.14527 -0.0159425 -0.0289415 -0.121556 -0.0747061 -0.0574309 -0.0554166 -0.0341244 -0.0135072 
-0.0387762 0.100938 0.030891 -0.109669 -0.00474866 0.0136795 -0.0984789 -0.0133731 0.0182997 
-0.12465 -0.022754 0.0106751 0.0546184 -0.0856638 0.00840346 -0.0795238 0.00645908 0.0146463 
-0.0632085 -0.00190329 0.00523745 -0.0863093 0.0112876 0.008864 -0.0671467 -0.00735484 -0.0589074 
0.0260859 0.00725101 -0.00205827 -0.0859901 0.0146825 0.0144296 -0.0807142 0.00575404 0.0217271 
-0.0838926 0.00721967 0.00607275 0.124076 -0.0456742 -0.0400054 0.122309 -0.0165046 -0.0240541 
-0.00480088 -0.100177 0.0126336 0.015836 -0.0746963 -0.00470895 -0.00310396 -0.0805903 -0.0132488 
-0.0689223 -0.0448025 -0.0084584 -0.0709281 -0.0525685 -0.0202068 -0.0502379 -0.0455795 -0.0141228 
-0.010914 -0.0677705 -0.0285868 0.00663441 -0.0882975 -0.0494852 0.00353127 -0.0982326 -0.0260188 
0.0391587 -0.0834865 -0.0022086 -0.084664 -0.0530774 -0.00437974 -0.101451 -0.0705082 -0.00390672 
-0.105817 -0.0648406 -0.00200785 -0.0326695 -0.0547532 0.01877 0.0111999 0.126573 0.0385391 
0.0454605 -0.0473255 -0.00022903 0.0607443 -0.0535331 0.000935343 0.0686361 -0.0679187 -0.000262829 
0.075937 -0.0686818 0.0039181 -0.0299876 0.0390101 0.0117012 -0.0268496 0.0384655 0.0179242 
-0.0510175 0.0592258 0.0159862 -0.0624958 0.0794429 0.0151296 0.0445253 -0.0214427 -0.00105796 
0.0870359 -0.0232411 -0.0203786 0.0202344 -0.0709988 -0.0217723 0.0283859 -0.085559 0.000229491 
-0.0407174 0.0391196 -0.0492236 -0.0480972 0.0456025 -0.0556942 -0.0431242 0.0527178 -0.065486 
0.0191225 0.132213 -0.00521344 0.0250682 0.0878288 0.00508216 0.0513231 0.134066 0.00891986 
-0.0641549 -0.0666802 0.0189956 -0.0496423 -0.0352938 0.0154647 -0.0854304 -0.0611377 0.0092561 
-0.0204045 -0.0223075 0.00696445 -0.0430046 -0.0643665 0.0092835 -0.0272077 0.0427636 0.0257381 
-0.0964946 -0.0407399 0.00841605 -0.097239 -0.0288489 0.0100507 -0.0919701 -0.0322509 0.00265216 
0.1225 0.026941 -0.00985046 0.0471659 0.0760181 -0.0290842 0.0664108 0.108168 -0.0318261 
0.0716923 0.0881032 -0.0279909 0.0245869 -0.112791 0.0157429 0.0463811 0.10326 -0.0556576 
0.0536905 0.114665 -0.0375316 0.0284923 0.0802537 -0.0203885 0.0627564 0.10797 -0.0296104 
-0.0748189 -0.022762 0.00403862 -0.091005 -0.0253435 0.00541562 -0.0675469 -0.0144388 0.00720083 
-0.0567086 -0.0377063 0.010245 0.0510726 0.0844584 0.0170723 0.0260857 -0.060159 0.0104941 
-0.00105718 -0.0787113 0.0142527 0.115639 -0.0636672 0.0101588 0.115774 -0.0406992 0.00851252 
0.103026 -0.0461475 -0.00526673 0.171237 -0.00382621 0.00832312 0.134704 0.0192013 -0.00359883 
0.109573 0.000707108 -0.0116905 0.0793254 -0.0973231 -0.0412397 0.0939447 -0.054811 -0.0311406 
0.109001 -0.0298873 -0.00476348 -0.0409139 0.0543783 0.0134773 -0.0626368 -0.00452807 -0.00355828 
-0.0540929 -0.00331093 -0.000760826 -0.0918015 -0.0342858 -0.00618669 0.0388263 0.0960321 -0.0156737 
-0.0301485 -0.0186442 0.0115002 -0.0747122 0.0837758 -0.0170319 -0.0615078 0.0590528 -0.0113392 
-0.0699126 0.0645948 -0.0112925 -0.115976 -0.022676 0.00663639 -0.111493 -0.015571 0.00340602 
-0.166769 -0.0418926 -0.0266016 -0.0375004 0.0119337 -0.000701679 -0.0835178 0.0140732 -0.000624079 
-0.0126675 -0.0439449 0.0148402 -0.0703294 0.0657981 -0.0106595 0.126098 -0.0749428 0.0322072 
0.0705477 -0.0584925 0.0227379 0.075322 -0.053954 0.0245026 0.0576416 0.121263 0.0258595 
0.0779956 0.122815 0.045962 0.076166 0.122796 0.0322189 0.0911094 0.0988529 0.0354466 
0.0708185 -0.0609631 -0.00589411 0.0856538 -0.0688274 -0.0120758 0.0718302 -0.0711574 -0.0086024 
0.0880047 -0.0779981 -0.0327247 -0.0737774 0.00851035 0.0187358 -0.0772291 0.00267854 0.0158993 
-0.0878478 0.0148892 -0.0702763 -0.109023 -0.00482577 -0.0929464 -0.0966764 -0.00466526 -0.0707448 
-0.0442182 -0.0157969 0.00887708 -0.098407 0.0187111 -0.0806838 0.0801028 -0.0292208 -0.014931 
0.063208 -0.0397772 -0.00938112 0.100978 -0.0712757 -0.00298387 0.086945 -0.071924 0.0197991 
-0.108166 -0.0390448 -0.0296409 -0.111225 -0.0381237 -0.0264372 -0.117177 -0.0431933 -0.036141 
-0.0393225 0.0359817 0.00944652 -0.0637125 0.043422 0.0114971 -0.0398766 0.0252843 0.00822736 
-0.0799175 -0.0445927 -0.0537811 -0.0865779 -0.0334892 -0.0557165 -0.0779572 -0.0302399 -0.0620756 
-0.119131 -0.0609083 -0.0652068 -0.0896395 -0.0941547 -0.0407685 -0.0544178 -0.0303638 0.00672003 
-0.0982766 -0.00636965 -0.0137994 -0.122955 0.0117622 -0.0293731 -0.134583 -0.0110895 -0.0414359 
-0.0736015 0.00421752 -0.00292733 -0.136502 0.1296 -0.0474607 -0.0952971 0.106048 -0.0219422 
-0.0899435 0.0902455 -0.0203024 -0.101285 0.105894 -0.0369997 -0.0909695 0.0777778 -0.0208714 
-0.102533 0.0765042 -0.0320404 -0.0970226 0.0163312 0.0146696 0.0263066 0.142362 0.0255631 
-0.0913172 0.106133 0.000965218 -0.0617489 0.0680738 -0.00972123 -0.0990186 0.103878 -0.0117323 
-0.0901976 0.0802423 -0.0141514 -0.0752061 0.0725553 0.00222052 -0.114879 0.0695328 0.00674848 
-0.0695428 0.0788349 0.00987374 -0.0304045 -0.0933255 -0.0262504 -0.0495147 -0.0908296 -0.0383885 
0.0451014 -0.0829985 -0.0289061 0.0246646 -0.0852778 -0.0236243 0.0242653 -0.05835 -0.0302164 
0.0656626 -0.0714211 -0.00508808 -0.0709403 0.0472506 -0.066893 0.104359 0.00658552 -0.0124932 
-0.113629 0.119953 0.0265151 -0.0320576 -0.0895696 -0.0114423 0.00085359 0.0321292 0.011799 
0.0564369 -0.0458062 0.00125923 -0.064829 0.044235 -0.0257868 -0.059994 0.0638227 -0.0318988 
-0.0785451 0.051022 -0.0417404 0.000457093 -0.136393 -0.0321829 0.0119365 -0.118223 -0.0136646 
-0.0910325 0.0857999 -0.0311729 -0.0505681 0.0388103 -0.0277432 -0.0651674 0.0434092 -0.0376537 
-0.0492523 0.0382136 -0.031649 0.0345461 -0.0442794 0.00715136 -0.0964009 -0.0311851 -0.0260719 
-0.101795 0.0994871 -0.0474887 -0.108855 0.0871145 -0.0491192 -0.135518 0.0246349 -0.0167051 
-0.070414 0.00635285 -0.00596119 -0.0628132 0.00781945 0.00120743 -0.122119 0.0317889 0.00337846 
-0.0737847 0.0542394 -0.0465131 0.0607211 -0.0615943 -0.00272221 0.0869668 -0.0904744 -0.00815789 
-0.108187 0.0632885 -0.0109077 -0.094408 0.0811753 -0.0345281 -0.0790972 0.0287191 0.00822992 
0.0332833 -0.0999579 -0.0192262 0.0460664 -0.127108 -0.0247821 0.0346624 -0.0642823 -0.0143237 
0.110399 0.0153595 -0.0136147 0.038719 0.0595825 0.0181655 0.0721263 0.0349587 0.0150158 
0.0965704 0.0491235 0.0215757 0.0396948 0.0211422 0.00514513 0.0805009 -0.0913213 -0.00871844 
0.0577075 -0.0621395 -0.0012078 0.0374856 -0.0624417 -0.00521764 -0.105405 0.000546181 0.0274098 
-0.0777025 0.00650475 0.0149633 -0.0662526 -0.00603168 0.0074016 -0.111394 0.0539262 -0.0735531 
-0.0919961 0.0379511 -0.0639657 -0.115503 0.0226153 -0.0656746 -0.0868285 0.0165406 -0.0570546 
-0.0592159 0.00432155 0.02009 -0.0959986 0.0729431 -0.0649001 0.065788 0.0929664 0.0262169 
0.06904 0.0473279 0.0150091 -0.115467 -0.00171411 -0.0583227 -0.11855 -0.00717242 -0.0503113 
-0.132353 -0.0224753 -0.0414778 -0.136611 -0.0197075 -0.0297787 0.113039 0.0532576 0.00717152 
0.0797892 0.0544152 0.0185678 -0.114643 -0.0329511 -0.0372475 -0.109473 -0.0254599 -0.0299947 
-0.136214 -0.0465985 -0.0511681 -0.0928795 -0.0321606 -0.0325533 -0.111676 -0.0451552 -0.0423684 
-0.110349 -0.0942673 -0.0708602 -0.105551 -0.0875285 -0.0711509 -0.0728839 -0.0991706 -0.0743174 
-0.0555773 0.056246 -0.0618469 -0.0586106 0.0458454 -0.0514983 -0.0397671 0.0621764 -0.0626528 
-0.0631309 0.0328401 -0.043574 -0.0520463 0.0305466 -0.0304395 0.0434514 0.0512297 0.0180213 
-0.0804676 -0.00817512 0.0160824 -0.121167 0.000602705 0.0289109 -0.0754347 0.0915543 0.015592 
-0.0358769 0.0395229 0.00904226 -0.0562871 0.0677545 0.0116032 -0.0760911 0.069707 0.0138543 
-0.0805414 0.0502939 -0.0518245 -0.0413754 -0.0403554 -0.0191081 -0.0410894 -0.0285943 -0.0268112 
-0.0437505 -0.0291294 -0.0244303 -0.130537 -0.0757238 -0.0658921 -0.109515 -0.051765 -0.0505799 
-0.111711 -0.0716068 -0.0654752 -0.0730507 -0.0821475 -0.0584453 -0.0592667 -0.046522 -0.0499088 
-0.0452531 -0.0425485 -0.0421442 -0.061834 -0.0344724 -0.0578268 -0.063 -0.0475188 -0.0577794 
-0.0302394 0.0727949 -0.0807534 -0.0232155 0.0743066 -0.0700782 -0.0561962 -0.0935355 -0.04836 
-0.0784216 -0.0931212 -0.0711952 -0.0629774 0.0317983 -0.0470834 -0.0469039 0.0291881 -0.0330692 
-0.0603779 0.0348626 -0.0443488 0.0252414 0.136009 0.006206 -0.0176575 0.113773 0.0147978 
-0.0972615 0.0137342 -0.0366806 -0.0473823 0.0444055 -0.0279889 -0.04901 0.0430779 -0.0326626 
-0.0246844 0.056251 -0.0298384 -0.0456438 0.0834788 -0.0374135 -0.0492788 0.0643705 -0.0534271 
-0.0773972 0.0478148 -0.0437685 -0.0816205 0.0408213 -0.0436639 -0.0678719 0.0573443 -0.0552005 
-0.036262 -0.0746597 -0.0103758 -0.0349493 -0.0771711 0.00319482 -0.0152224 -0.0547631 -0.0073692 
-0.0470466 -0.0807158 -0.00518958 -0.0186725 -0.0916094 -0.00488247 -0.00994002 -0.0640319 -0.0152804 
0.118511 0.0545389 0.00330233 0.0600631 0.132652 0.0227102 0.0898921 0.139744 0.0423764 
-0.0730343 -0.0282903 -0.0124998 -0.0727784 -0.0188956 -0.0107076 0.00307453 -0.0937508 -0.029099 
-0.0267062 -0.0906824 0.00987785 -0.0811067 -0.0232484 -0.0186655 -0.109582 -0.0226289 -0.0219534 
-0.0950279 -0.0303435 -0.0272061 -0.0783389 -6.16939e-05 0.00969347 -0.097171 0.00521616 0.0151824 
-0.110354 0.00285959 -0.00687672 -0.10345 -0.0172429 -0.0090447 0.0582141 -0.0657834 -0.00285954 
0.0433264 -0.0654729 -0.0216839 0.12524 0.0468981 0.0169073 0.112206 0.0306308 0.0140746 
-0.0997347 0.00251487 0.00888646 -0.0636796 0.0532768 -0.0373758 -0.110481 -0.00295007 -0.00484512 
-0.0441759 0.0497939 -0.0457632 -0.0423694 0.0763438 -0.0587541 -0.0262174 -0.0590839 -0.0432275 
-0.0322139 -0.112049 -0.0909724 -0.00633963 -0.0782537 -0.0473521 -0.0600948 -0.0220022 -0.014744 
-0.0781217 -0.03547 -0.0206788 -0.0749912 -0.00599029 -0.0121378 0.0614352 0.0728908 0.0197962 
0.0467845 0.0617247 0.018586 -0.0380434 0.084165 -0.0719804 -0.0293449 -0.0681328 -0.0159541 
-0.0781484 0.0734577 0.00706668 -0.0621397 0.0720135 0.00724199 0.0699411 -0.0833343 -0.0330448 
-0.0199843 0.00372739 -0.00473706 -0.0654471 0.0018769 -0.00330272 -0.0953444 0.00687834 0.00638391 
0.0474996 -0.0530171 -0.0220038 0.0428031 -0.0365598 -0.0208269 -0.052252 -0.0773468 -0.058595 
-0.0051618 0.0925939 -0.0123673 -0.0344107 0.0696323 -0.0130965 -0.017552 0.137597 -0.00568477 
-0.06721 -0.0278538 -0.0214935 0.0174385 -0.016493 -3.02723e-05 -0.0179139 0.0770728 -0.0549722 
-0.0119715 0.0166992 0.00521495 0.0321882 -0.0374712 -0.0208247 -0.0718583 -0.0883895 -0.0670022 
-0.070228 0.0317043 -0.0595672 -0.0367806 0.0165115 -0.0332926 -0.0600554 0.032498 -0.0486241 
0.097605 -0.0630198 -0.0175569 0.0753624 -0.0470198 -0.0384346 -0.0557613 0.0265384 -0.0438327 
-0.0685299 -0.0853605 -0.00840188 -0.0869727 -0.0768465 -0.0271812 -0.0582479 -0.0710425 -0.0205666 
0.0124061 0.0761996 -0.0560835 0.0143652 0.0744401 -0.0471436 0.0261243 0.0727528 -0.0461849 
-0.0534725 0.0743589 -0.00833976 -0.0480898 0.0783045 0.00272167 -0.0461272 0.047243 0.00158235 
-0.0190563 -0.096928 -0.0487697 -0.00915138 -0.0579978 -0.0375819 -0.021803 -0.0770994 -0.0442889 
-0.0372171 -0.0850904 -0.0606664 -0.0775025 -0.0335082 -0.0308925 0.0766933 -0.0361049 0.0134916 
0.0645535 -0.0450629 0.012033 0.100443 -0.00357204 0.0132432 0.0900626 -0.0168378 0.0102931 
0.152999 -0.0307921 0.0292186 0.123561 -0.0334696 0.0117341 -0.114928 0.0580147 -0.0299208 
0.128942 0.0216298 0.0187145 0.0979689 0.00934676 0.012838 0.0958995 0.0230679 0.013958 
0.0154523 0.0513765 -0.0298095 -0.0800211 -0.0662018 -0.038394 -0.0484108 -0.0650519 -0.0155711 
-0.0457228 -0.0862965 -0.0278112 -0.0857045 -0.112369 -0.041683 -0.0391046 -0.0998043 -0.0361494 
-0.0938623 -0.104368 -0.0162505 -0.0982226 -0.0850976 -0.0372277 0.053936 -0.0988983 -0.0356977 
0.0499181 -0.0702438 -0.0213762 0.0441991 -0.0827202 -0.0324162 0.0321015 -0.100812 -0.0416414 
0.0414493 -0.0923493 -0.0250142 0.0534779 0.129305 0.016241 0.0217823 -0.0683927 -0.0190089 
0.0208939 -0.0544793 -0.00751457 0.0238721 -0.0730819 -0.00122198 0.0370559 -0.0691287 0.0099553 
0.0293348 -0.0475565 0.00285961 0.0646666 -0.0795754 0.011126 0.109391 0.0886777 0.0101857 
0.0944057 0.0991011 -0.0042277 0.113151 0.101321 0.0203709 0.0847447 0.0864347 -0.0139562 
0.0646643 0.0964537 0.0430608 0.0999104 0.101763 0.0294011 0.113143 0.11228 0.0333751 
-0.0444224 -0.0617771 -0.000907598 0.0506672 -0.0472523 -0.0097703 0.0664004 -0.0791009 -0.00783602 
0.0424037 0.0453329 -0.00328337 0.0399602 0.0543429 -0.00748863 0.0559965 0.0612323 -0.00637677 
0.0508255 0.0792437 -0.0106207 0.0624051 0.0630329 -0.00804199 -0.0541927 0.0313132 -0.0721902 
-0.062503 0.0503554 -0.0817973 -0.0506694 0.062544 -0.0857052 -0.0631499 0.080998 -0.0993167 
0.0238402 -0.0959178 -0.0423773 0.140362 0.081276 0.015636 0.145512 0.0288857 0.0144618 
0.107711 0.0362004 0.0101057 0.0320097 0.0258182 -0.0565233 0.0411011 0.0255323 -0.0946809 
0.0163598 0.0353129 -0.109554 -0.0651884 0.0530668 0.00782408 0.15098 0.0419003 0.0178047 
0.0647363 -0.0652583 -0.00319448 0.125365 0.0355897 0.0132006 0.116894 0.0535036 0.00146279 
0.097339 0.0402079 0.00123727 0.0211157 0.12541 -0.072501 0.00341051 0.118707 -0.0824011 
-0.0118675 0.13516 -0.0736843 -0.0974355 -0.0224657 -0.0751201 -0.0909628 -0.035183 -0.0703643 
-0.0905124 -0.0213095 -0.0749228 -0.123561 -0.0355578 -0.0808518 0.111178 -0.0495874 0.0414792 
0.0872801 -0.0432015 0.0291801 0.140023 -0.0412678 0.0307221 0.0770388 -0.00641673 0.0194437 
0.111242 0.00115791 0.00877951 0.0818378 0.000139827 -0.015224 0.133572 -0.0519942 0.0320883 
0.127369 -0.051708 0.025756 0.115907 -0.0480372 0.0305886 0.0160647 0.158096 -0.0533748 
0.108028 0.052653 0.00176107 0.115664 0.0602099 -0.0084723 0.118193 0.0925184 -0.0124019 
0.0932146 0.0462677 -0.00383925 -0.0859241 0.0294626 -0.0646766 0.0608966 0.0495321 -0.0480094 
0.0454477 0.051765 -0.0520607 0.0564586 0.0616652 -0.0485838 0.133519 -0.0469213 0.0328535 
0.12508 -0.0424173 0.0201769 0.139814 -0.0164297 0.0236849 0.0143101 0.0793376 -0.0717346 
0.0133955 0.0720462 -0.0655854 0.0368414 0.0906688 -0.0727237 -0.00875163 0.0830088 -0.0831247 
0.0806052 0.0458132 -0.0374003 0.0649107 0.0399242 -0.045217 0.0705999 0.0526954 -0.0368225 
0.0543782 -0.0807699 0.0175314 0.0509395 -0.0625159 0.017933 0.0440904 -0.07402 0.0153061 
0.0631049 -0.0742179 0.0255717 0.0534577 -0.0705869 0.0275579 0.0591328 -0.0736198 0.0301612 
0.0477773 0.0477707 -0.0269212 0.0591078 0.059844 -0.0367378 0.066654 0.063722 -0.0293696 
0.0588276 0.0734895 -0.0370355 0.0891541 0.0859054 -0.0552136 0.0709701 0.049885 -0.0337782 
0.0486022 0.0839258 -0.0520883 -0.049935 -0.0596054 -0.0462696 -0.0653257 -0.054314 -0.0529103 
0.0634789 0.0830416 0.0280569 0.0298324 0.0498374 0.0133972 0.0456171 0.0702476 0.0211652 
-0.080515 -0.036598 -0.0755553 -0.0564558 -0.0318581 -0.0463038 0.0717179 -0.0228328 -0.0145833 
0.0840271 -0.0152757 -0.0146527 0.102126 -0.0140811 0.0199577 -0.0924611 -0.0688193 -0.0385479 
0.00784589 -0.0296381 -0.0153205 -0.059584 -0.0612315 -0.0393295 -0.0461005 -0.0770306 -0.0436584 
0.082742 -0.0959286 -0.00234258 0.068303 -0.0667737 0.000545824 0.0498456 -0.0555171 -0.000200905 
0.0403001 0.134708 -0.00273034 -0.0196829 0.024479 0.00663513 -0.0634073 -0.00921398 -0.0274915 
-0.0670827 -0.00671717 -0.0257311 -0.0986251 -0.024868 -0.0362377 -0.0934804 -0.101798 -0.0806604 
-0.071757 -0.0602449 -0.0467981 0.0131315 0.0779058 -0.000341923 0.00992341 0.102606 -0.0150017 
-0.0691532 0.0219915 -0.0557197 0.0090332 0.0725123 -0.062045 -0.00727192 0.0734186 -0.0741923 
-0.0877005 -0.0652338 -0.0585746 0.0103583 -0.126742 -0.0855326 -0.0769861 0.0553349 -0.0335105 
-0.0679037 -0.0439321 0.00066038 -0.0172891 -0.0932338 -0.0662329 0.0757335 0.0785657 0.0211787 
0.103832 0.098734 0.0280838 0.054465 -0.070131 0.000419806 -0.0536722 -0.101226 -0.064564 
0.0498837 -0.0889382 -0.0206076 -0.085661 -0.0435355 -0.0684115 -0.10928 -0.050319 -0.0751513 
0.0341481 0.054763 0.0185964 0.0797823 0.119814 0.00616018 0.0257801 0.0681546 -0.0564443 
0.0189836 0.123688 -0.0260151 -0.0935795 0.0222001 -0.0754224 -0.0921225 0.0326463 -0.0792583 
-0.0168024 0.0390122 0.0156651 0.0037015 0.0613358 -0.00415574 -0.0841683 -0.00213904 -0.0663874 
0.0880094 -0.0275005 0.0322907 -0.0306289 0.0744977 -0.0847903 -0.00876248 0.0811659 -0.0696945 