# vtk DataFile Version 5.1
vtk output
ASCII
DATASET UNSTRUCTURED_GRID
POINTS 2395 float
-0.934285 2.53138 -1.77636e-15 -2.90643 1.01291 -1.77636e-15 -1.21672 2.32377 -1.77636e-15 
-1.48917 2.10646 -1.77636e-15 -1.74879 1.8726 -1.77636e-15 -1.96665 1.58796 -1.77636e-15 
-2.13612 1.26594 -1.77636e-15 -2.23224 0.916306 -1.77636e-15 -2.26555 0.528838 -1.77636e-15 
-2.25596 0.149902 -1.77636e-15 -2.23148 -0.225406 -1.77636e-15 -2.1811 -0.606548 -1.77636e-15 
-2.13737 -0.987544 0 -2.05029 -1.36033 0 -1.87526 -1.69513 0 
-1.68631 -2.01832 -0.0102621 -1.45558 -2.31526 0 -1.20478 -2.58438 -0.00135039 
-0.900744 -2.79524 0 -0.577162 -2.89612 0 -0.183607 -2.8773 0 
0.1623 -2.65542 0 0.478311 -2.47609 0 0.806019 -2.25873 -0.00562195 
1.12679 -2.0829 0 1.49123 -1.97992 0 1.76241 -1.78757 0 
1.98308 -1.59905 0 2.14539 -1.32505 0 2.3108 -1.01502 0 
2.42247 -0.634114 0 2.51895 -0.284933 -1.77636e-15 2.49111 0.082174 -1.77636e-15 
2.42381 0.427988 -1.77636e-15 2.29046 0.757129 -1.77636e-15 2.09899 1.08639 0 
1.89055 1.33324 -1.77636e-15 1.70024 1.60547 -1.77636e-15 1.48793 1.89901 0 
1.24202 2.13474 -1.77636e-15 0.969548 2.36378 -1.77636e-15 0.679274 2.60583 -1.77636e-15 
0.369272 2.80393 -1.77636e-15 0.0426828 2.95166 -1.77636e-15 -0.311508 2.91872 -1.77636e-15 
-0.640483 2.74822 -1.77636e-15 -2.80343 1.3854 -1.77636e-15 -2.64199 1.72396 -1.77636e-15 
-2.4254 2.0209 -1.77636e-15 -2.20177 2.32515 -1.77636e-15 -1.96926 2.6046 -1.77636e-15 
-1.73551 2.87344 -1.77636e-15 -1.45841 3.12721 -1.77636e-15 -1.1404 3.31699 -1.77636e-15 
-0.816764 3.43868 -1.77636e-15 -0.44663 3.51404 -1.77636e-15 -0.0844393 3.54237 -1.77636e-15 
0.292907 3.50133 -1.77636e-15 0.657246 3.4125 -1.77636e-15 1.00643 3.24063 -1.77636e-15 
1.35941 3.03829 -1.77636e-15 1.69943 2.84793 -1.77636e-15 2.06033 2.66801 -1.77636e-15 
2.40901 2.4967 -1.77636e-15 2.65257 2.29645 -1.77636e-15 2.83651 2.00013 0 
2.97931 1.66874 -1.77636e-15 3.08548 1.32441 -1.77636e-15 3.12705 0.99266 -0.0852845 
3.1298 0.624612 -1.77636e-15 3.06452 0.283614 -0.0747413 3.00454 -0.0710317 -0.0548481 
2.9536 -0.435214 -0.125208 2.87968 -0.802358 -0.143816 2.772 -1.15017 -0.0671944 
2.63007 -1.46467 0 2.44875 -1.75158 0 2.23095 -2.02089 -0.0689529 
2.01558 -2.27264 -0.0285742 1.78513 -2.5142 -0.0159084 1.53785 -2.74809 0 
1.26239 -2.99985 0 0.989152 -3.20917 0 0.656126 -3.47214 0 
0.290699 -3.72799 0 -0.131948 -3.87731 0 -0.508891 -3.7924 0 
-0.842268 -3.65948 0 -1.18553 -3.52761 0 -1.53708 -3.3662 0 
-1.82309 -3.13325 0 -2.09744 -2.86024 0 -2.33566 -2.54805 0 
-2.53423 -2.21292 0 -2.697 -1.85999 0 -2.82689 -1.50059 0 
-2.94174 -1.14711 0 -3.04163 -0.791241 0 -3.09071 -0.435878 -1.77636e-15 
-3.08921 -0.08628 -1.77636e-15 -3.03923 0.266664 -1.77636e-15 -2.98301 0.635622 -1.77636e-15 
-1.19778 -2.79232 -1.29574 -1.13653 -2.86928 -0.964845 -1.37653 -2.66343 -1.1186 
0.154522 3.14604 -0.749589 0.0792146 3.06487 -0.304147 0.374851 2.94988 -0.408374 
-0.394839 -3.01433 -0.22772 -0.0535931 -2.91317 -0.237319 2.1776 1.09548 -0.357419 
2.03094 1.37492 -0.228934 -1.89214 -1.78808 -1.73415 -1.95746 -1.80312 -1.3825 
-2.03174 -1.5144 -1.64672 -1.75103 -2.04672 -1.58327 -2.23504 -0.0833113 -0.292972 
-2.2278 -0.488899 -0.315604 0.289721 -2.70403 -0.315855 0.53457 2.77944 -0.208452 
0.80367 2.58724 -0.230871 0.612608 2.80331 -0.511816 -2.33548 0.453327 -0.956481 
-2.27016 0.355422 -0.619038 -2.28815 0.712844 -0.720047 -2.30542 0.120401 -0.89307 
0.610399 -2.43762 -0.290763 0.890233 -2.25851 -0.271615 -0.909321 3.00607 -0.877083 
-0.783556 3.17938 -1.09711 -1.00372 3.0339 -1.21606 -1.38689 -2.65358 -0.85174 
0.124842 -2.87337 -0.790968 0.336286 -2.75057 -0.857267 0.260757 -2.80165 -0.593003 
0.478117 -2.6208 -0.538012 1.87696 1.55469 -0.0826449 1.74701 1.81011 -0.133873 
-2.25698 1.41927 -0.844197 -2.15754 1.76456 -0.954038 -2.2608 1.54725 -1.22313 
-0.623567 -3.09071 -0.762837 -0.890389 -3.01434 -0.616967 -0.843663 -3.05545 -0.905118 
-2.20007 1.57835 -0.569781 -2.1589 -1.19626 -0.526321 -2.06204 -1.43356 -0.295078 
-2.16205 -1.10085 -0.23822 2.30151 0.785471 -0.555242 2.20377 1.07735 -0.833595 
-2.04807 -1.4954 -0.580667 2.46554 0.0658504 -0.440577 2.45455 -0.196202 -0.541755 
-2.2009 -0.793008 -0.203039 -1.99622 1.35155 -3.04904 -2.25182 1.21333 -2.6435 
-1.98222 1.60802 -2.79694 2.14084 1.36028 -1.63155 2.02035 1.65793 -1.62319 
2.0366 1.53842 -1.39538 -2.22767 -0.856707 -0.483397 2.42826 0.334289 -0.349753 
2.42794 -0.564031 -0.52026 0.890265 -2.2832 -0.571104 1.00009 -2.17813 -0.876882 
1.09916 -2.1255 -0.468197 -0.519099 3.03618 -0.285048 0.71289 -2.44709 -0.788446 
0.515705 -2.63426 -1.1444 0.267315 -2.78434 -1.18809 -1.03151 0.171536 -4.77947 
-1.19287 0.243227 -4.58968 -1.03159 0.441125 -4.83118 0.386966 -2.68112 -1.84439 
0.266891 -2.747 -1.50635 0.0422588 -2.77461 -1.85575 2.13024 1.53226 -1.88947 
-1.43876 -2.54365 -1.4088 -1.24969 -2.68914 -1.6297 2.22451 1.28344 -1.96344 
2.22318 1.12273 -1.72843 1.47201 1.25581 -5.27944 1.70482 1.0404 -5.32905 
1.47902 1.07674 -5.47774 1.94969 -1.4717 -0.491708 2.1488 -1.17553 -0.478661 
1.61957 0.863946 -5.59551 2.31779 0.681102 -0.944988 2.2443 0.871387 -1.23187 
1.80316 1.94184 -0.93706 1.93319 1.71901 -1.10187 1.83216 1.95316 -1.26981 
-0.747624 3.01381 -0.548083 -1.03164 2.82828 -0.563391 -1.85501 -1.57484 -2.23674 
-1.64169 -1.89109 -2.31597 -1.76516 -1.84968 -2.06186 1.9302 1.70505 -0.753778 
2.41175 -0.312848 -0.885781 -1.7179 -1.6113 -2.60917 -1.72867 -2.02773 -1.87564 
-0.57663 3.21063 -0.827578 -2.27012 -0.595166 -0.672088 -2.3155 -0.650934 -1.0152 
-2.25511 -0.976028 -0.832471 0.0228146 -2.92213 -0.550312 -2.35026 1.02141 -1.23643 
-2.32761 0.951401 -0.973551 -2.32264 1.23973 -1.05416 -1.16044 -0.0303218 -4.61381 
2.37222 0.571361 -0.359239 -2.41569 1.0385 -1.58791 -2.42091 0.770592 -1.34322 
-2.4796 0.772384 -1.67739 2.29256 -0.645904 -1.09919 2.33927 -0.230343 -1.33307 
0.647861 -2.09321 -3.48747 0.674082 -2.08904 -3.13152 0.457641 -2.12471 -3.33375 
-1.62928 -2.30652 -1.45229 -1.58062 -2.25896 -1.80099 -1.47361 -2.46445 -1.65177 
-0.76991 -2.8403 -1.97482 -0.474739 -2.80385 -2.10871 -0.531539 -2.93983 -1.77046 
-0.122359 -3.01336 -0.893169 -1.75105 -2.09396 -1.27259 -1.59455 -2.40393 -1.09736 
-1.76469 -2.10014 -0.897559 -1.07177 -2.82564 -0.35085 -0.270416 3.22513 -0.552997 
1.45355 -1.72396 -2.25167 1.59269 -1.54871 -2.09831 1.39901 -1.76585 -2.01426 
1.65336 -1.48581 -2.41774 -1.35555 2.43859 -0.363183 -1.08901 2.60558 -0.239929 
-1.25139 2.62352 -0.575076 -1.44794 2.46864 -0.72595 2.31431 -0.888797 -0.51065 
2.36389 -0.7319 -0.791493 -0.251037 -2.90067 -1.89275 -0.347653 -3.10049 -0.703152 
-0.554347 1.62498 -4.74913 -0.635667 1.83173 -4.524 -0.383454 1.81062 -4.76306 
-0.114287 3.27965 -1.87263 0.126796 3.25394 -1.59365 0.334795 3.19902 -1.91727 
-1.39255 -2.61905 -0.519816 -1.57554 -2.31227 -0.354414 -1.60152 -2.40794 -0.693011 
-1.36757 -2.56224 -0.245928 -1.18995 -2.84231 -0.646091 -0.768872 2.78751 -0.279369 
-2.00016 -1.73185 -0.786024 -2.11641 -1.38145 -0.846165 -2.07802 -1.59781 -1.08003 
2.3894 0.423099 -0.66025 1.14824 2.54508 -3.72367 1.00904 2.72972 -3.31725 
1.34059 2.45658 -3.46149 0.942292 -2.0351 -3.37301 0.830898 2.65967 -3.73674 
0.704638 2.90642 -3.34811 0.577027 3.0165 -3.01132 0.888586 2.88408 -2.97766 
-2.26414 -1.05421 -1.38041 -2.19311 -1.22592 -1.12846 -2.28456 -0.934217 -1.13795 
-1.74628 -2.15406 -0.588533 0.383757 3.15529 -1.52909 -0.258711 -3.04408 -0.440985 
-0.55915 -3.09617 -0.474393 2.07555 -0.849179 -2.45781 2.20556 -0.481654 -2.36202 
2.11993 -0.717852 -2.02729 2.34391 0.366 -1.79701 2.31905 0.537528 -1.35569 
2.33492 0.17176 -1.38654 2.00989 -1.3546 -0.877627 2.23281 -1.02105 -0.843687 
2.22542 -0.377855 -1.95049 -1.60155 2.28998 -0.514095 -2.29642 0.606439 -0.307529 
-2.24706 0.248784 -0.275051 -2.12444 -1.4108 -1.39189 0.666266 3.09159 -2.71142 
-1.79078 -1.9727 -0.347723 -0.885344 3.02231 -2.11534 -1.14183 2.797 -2.03515 
-1.10197 2.95072 -1.76717 -2.3814 -0.700536 -1.33884 -2.44776 -0.327901 -1.44396 
-2.35513 -0.594144 -1.80985 -2.19745 1.45932 -0.279409 -2.24789 1.23843 -0.478198 
-0.756365 -2.98859 -0.268861 -1.08128 2.84077 -2.33614 2.11874 -1.04138 -3.16746 
1.93611 -1.3196 -3.241 2.08084 -1.26293 -3.57278 0.692628 3.01202 -1.64697 
0.959835 2.86533 -1.41819 1.0152 2.92038 -1.77498 1.30489 2.60029 -1.49264 
1.76665 -1.33754 -1.89979 1.92944 -1.13682 -1.65781 1.73653 -1.41462 -1.52688 
1.96023 -1.18012 -1.27578 -2.40157 0.484486 -1.26515 -2.33435 0.726047 -1.08424 
-1.51779 0.480123 -4.19676 -1.40223 0.11723 -4.38828 -1.66743 0.125509 -4.04032 
-1.94931 -1.71323 -0.447002 -1.24927 0.534895 -4.53883 2.19573 -0.623917 -1.71185 
2.07157 -0.887494 -1.76861 1.95982 -1.04713 -2.09927 1.86555 -1.27982 -2.86907 
-2.03992 -1.24428 -2.14196 -2.20031 -0.838949 -2.14714 -2.04339 -0.999792 -2.45796 
-1.88912 1.98056 -0.397425 -2.07595 1.83144 -0.639754 -2.03694 1.74471 -0.26389 
-1.43132 -0.857785 -3.9349 -1.5971 -0.532154 -3.91762 -1.39553 -0.56182 -4.19063 
-1.62943 -0.830721 -3.61808 -1.32323 -2.47826 -1.98709 -1.90417 -1.94234 -0.594648 
-2.43884 0.485222 -2.30439 -2.41521 0.783659 -2.52272 -2.34071 0.412559 -2.68405 
-2.41393 0.743292 -2.21669 -1.51403 2.3277 -2.41695 -1.61576 2.40837 -1.92626 
-1.34391 2.605 -2.17384 -1.83586 2.11951 -2.14835 -1.19339 2.61599 -2.57738 
-1.29744 2.44606 -2.85275 -2.34399 1.30513 -1.41932 -0.209241 3.30196 -0.946663 
-1.65191 2.40278 -1.49951 -1.84677 2.22457 -1.71937 -1.3718 2.62917 -1.73315 
-2.04594 1.99451 -1.83884 -1.94825 2.12217 -1.46003 -2.15954 1.83569 -1.45462 
-1.82026 2.22019 -1.14352 -0.890893 -2.87974 -1.72004 -1.03794 -2.71422 -2.01449 
1.24446 -1.95857 -0.665254 1.46155 -1.76288 -0.811239 1.57738 -1.88515 -0.418911 
1.25367 -1.95264 -1.01329 -0.823798 1.56329 -4.58566 2.43879 0.0542343 -0.807258 
-1.20157 2.72559 -0.976736 -0.926598 -2.99739 -1.17652 -0.197698 3.1087 -0.194086 
1.80369 -1.28777 -2.18104 -1.13409 2.50837 -3.12078 -0.900102 2.67865 -3.31687 
-1.03992 2.45455 -3.46075 -0.649177 -3.02597 -1.42671 -0.5417 -3.0999 -1.05181 
[...]
POINT_DATA 2395
FIELD FieldData 1
Nodal_area 3 2395 float
0 0 0 0 0 0 0 0 0 
0 0 0 0 0 0 0 0 0 
0 0 0 0 0 0 0 0 0 
0 0 0 0 0 0 0 0 0 
0 0 0 0 0 0 0 0 0 
0 0 0 0 0 0 0 0 0 
0 0 0 0 0 0 0 0 0 
0 0 0 0 0 0 0 0 0 
0 0 0 0 0 0 0 0 0 
0 0 0 0 0 0 0 0 0 
0 0 0 0 0 0 0 0 0 
0 0 0 0 0 0 0 0 0 
0 0 0 0 0 0 0 0 0 
0 0 0 0 0 0 0 0 0 
0 0 0 0 0 0 0 0 0 
0 0 0 0 0 0 0 0 0 
0 0 0 0 0 0 0 0 0 
0 0 0 0 0 0 0 0 0 
0 0 0 0 0 0 0 0 0 
0 0 0 0 0 0 0 0 0 
0 0 0 0 0 0 0 0 0 
0 0 0 0 0 0 0 0 0 
0 0 0 0 0 0 0 0 0 
0 0 0 0 0 0 0 0 0 
0 0 0 0 0 0 0 0 0 
0 0 0 0 0 0 0 0 0 
0 0 0 0 0 0 0 0 0 
0 0 0 0 0 0 0 0 0 
0 0 0 0 0 0 0 0 0 
0 0 0 0 0 0 0 0 0 
0 0 0 0 0 0 0 0 0 
0 0 0 0 0 0 0 0 0 
0 0 0 0 0 0 0 0 0 
0 0 0 0 0 0 0 0 0 
-0.0576372 -0.072043 -0.0107367 -0.0659827 -0.0917637 -0.00300741 -0.0530405 -0.0535142 -0.00492121 
0.0625526 0.149088 0.0314245 0.0232357 0.0676184 0.0170264 0.038579 0.0627596 0.013527 
0.00370969 -0.0370848 0.0122947 0.0211953 -0.0421142 0.00913653 0.0672683 0.0255473 0.0051859 
0.0466362 0.0206713 0.0112065 -0.0830526 -0.0457963 -0.0171025 -0.107991 -0.0599534 -0.015394 
-0.0812842 -0.0382859 -0.014316 -0.078613 -0.0499744 -0.0115678 -0.0469936 -0.00105183 0.00388919 
-0.0658023 -0.00234092 0.00768851 0.0349581 -0.050542 0.0130459 0.0176292 0.02399 0.0064226 
0.0369878 0.0531326 0.0134522 0.0576269 0.080365 0.0183615 -0.0885176 0.00365306 0.0197228 
-0.114469 -0.00583904 0.00995846 -0.128044 -0.0030634 0.00785248 -0.0975172 0.00349599 0.0269811 
0.0211462 -0.0283114 0.00828544 0.0209142 -0.029387 0.00386022 -0.0729337 0.0881283 0.0270595 
-0.0395086 0.0654542 0.0144907 -0.0732434 0.0741423 0.012319 -0.0728254 -0.069986 0.000683376 
0.0257676 -0.0467537 0.00290318 0.0667786 -0.0919367 0.00313444 0.0314818 -0.0485333 0.00624002 
0.0559235 -0.0693085 0.0114459 0.0252226 0.0141134 0.0107242 0.0474101 0.0393907 0.0167474 
-0.104771 0.0254982 0.0107234 -0.119541 0.0593831 0.0123764 -0.102691 0.0336648 0.010749 
-0.00936682 -0.0653396 0.00180964 -0.0488039 -0.103443 0.0146458 -0.0252077 -0.0668584 -0.000921976 
-0.0943124 0.0344443 0.0124986 -0.0987311 -0.0302179 0.00840951 -0.0404959 -0.0149331 0.00237213 
-0.0447041 -0.0100242 0.00411688 0.0851042 0.0256081 -0.00161027 0.151169 0.0517302 -0.00265194 
-0.0667792 -0.0245905 0.00619472 0.053313 0.00597071 -0.00407395 0.0568485 -0.00288992 -0.00534638 
-0.0294158 -0.00272699 0.00342834 -0.0954943 0.0569747 -0.0561781 -0.17572 0.0707944 -0.0653053 
-0.0857686 0.0559477 -0.0416182 0.0718631 0.024654 0.0123979 0.0642724 0.0276067 0.0123407 
0.0791808 0.0325251 0.0075362 -0.101788 -0.0130018 0.011901 0.0273639 0.00535606 -0.00189274 
0.0580399 -0.0100884 -0.00552858 0.0458131 -0.0567189 0.00193535 0.0903699 -0.0952457 0.000997431 
0.0383208 -0.0508816 -0.00805719 -0.0264877 0.050888 0.0256092 0.0835287 -0.0998425 0.00896888 
0.0698631 -0.0973447 -0.0039851 0.0384243 -0.0621336 -0.00663943 -0.0520546 -0.00430035 -0.0419362 
-0.0514737 -0.00303873 -0.0455063 -0.0788747 0.00786277 -0.0675636 0.0387311 -0.0789514 -0.0188241 
0.0662776 -0.132252 -0.0143135 0.0393626 -0.106549 -0.0229277 0.0689431 0.0258477 0.0132204 
-0.0657996 -0.0611032 -0.010394 -0.0777191 -0.0977684 -0.0284166 0.08905 0.0257105 0.0141914 
0.0657475 0.0178205 0.0107998 0.039517 0.0653149 -0.0532061 0.0532745 0.0635219 -0.050938 
0.0286691 0.048344 -0.0451584 0.0469415 -0.0425679 -0.0120129 0.057091 -0.0365961 -0.00223016 
0.0463349 0.0659729 -0.0649295 0.131982 0.031824 -0.00765501 0.121733 0.0335801 0.0010522 
0.0893694 0.057925 0.010409 0.0807653 0.0394455 0.00509429 0.0707573 0.0371553 0.0104031 
-0.053511 0.0751715 0.0357882 -0.0703794 0.088894 0.03601 -0.0908038 -0.048825 -0.0305125 
-0.0750456 -0.0481936 -0.030046 -0.0756229 -0.0438129 -0.0264004 0.102018 0.0574449 0.00312894 
0.14879 -0.0175784 -0.0249039 -0.126377 -0.0788169 -0.0592857 -0.0578249 -0.0364341 -0.0142684 
-0.0443991 0.112315 0.0289141 -0.111856 -0.00914903 0.0175893 -0.100214 -0.0170046 0.0191521 
-0.128842 -0.0286601 0.0129475 0.0489671 -0.0932637 0.0110822 -0.0808462 0.00827658 0.0133449 
-0.0643902 -0.000462988 0.00601483 -0.0877416 0.0133905 0.00833419 -0.0694541 -0.0081379 -0.0613862 
0.0277128 0.00694724 -0.00184015 -0.0900194 0.0164765 0.0111512 -0.0831379 0.00720899 0.0191714 
-0.0870228 0.00866945 0.00354216 0.133868 -0.0429762 -0.0320549 0.129562 -0.0149776 -0.0230182 
-0.00108722 -0.103962 0.00589038 0.0198174 -0.0803391 -0.0123066 0.00123729 -0.0845451 -0.0204559 
-0.0750825 -0.0485963 -0.0101509 -0.0755318 -0.0554442 -0.0215274 -0.0530312 -0.0466189 -0.015323 
-0.0162267 -0.0707281 -0.0301637 -0.0011393 -0.0968719 -0.0510611 -0.00428968 -0.103215 -0.0291439 
0.0323167 -0.0894356 -0.00126481 -0.0876768 -0.055782 -0.00618678 -0.109756 -0.0753814 -0.00597945 
-0.110699 -0.068609 -0.0041627 -0.0400171 -0.0570305 0.0180719 0.00385535 0.137904 0.0371454 
0.050782 -0.0497494 -0.00142965 0.0691624 -0.0573546 0.000113624 0.0771883 -0.0729711 -0.00151391 
0.0818323 -0.0698183 0.00167436 -0.0357702 0.0403827 0.0157165 -0.0295126 0.0403928 0.0216577 
-0.0581294 0.0622899 0.0189798 -0.0724802 0.0842164 0.0184435 0.0464698 -0.0214274 -0.00157265 
0.087146 -0.0246531 -0.0154444 0.0161706 -0.0768417 -0.0246363 0.0202525 -0.0899892 0.001512 
-0.0423657 0.0425144 -0.0537952 -0.0513365 0.0502347 -0.0619673 -0.047468 0.0599329 -0.0753063 
0.01697 0.140848 -0.0100094 0.0242877 0.093502 0.00100561 0.04631 0.152263 0.00363352 
-0.0730779 -0.0692932 0.0180725 -0.0532006 -0.0372952 0.014651 -0.0912932 -0.0646783 0.00723979 
-0.0234681 -0.0229813 0.0069072 -0.0510262 -0.0661794 0.00915624 -0.0281531 0.0408218 0.028738 
-0.101509 -0.0452287 0.00748041 -0.101319 -0.0336915 0.00980353 -0.0972968 -0.0381598 0.000587217 
0.130108 0.026008 -0.00936924 0.0504008 0.0843593 -0.0362989 0.0663473 0.117895 -0.0390578 
0.0735163 0.0982138 -0.0359619 0.0255068 -0.11374 0.0103331 0.0470096 0.116431 -0.0624202 
0.0491471 0.129367 -0.0438346 0.0264312 0.0915352 -0.0243076 0.0609521 0.121661 -0.0332396 
-0.0787811 -0.0283022 0.00241416 -0.0955568 -0.0314432 0.00450207 -0.0697672 -0.0181291 0.00731404 
-0.0596342 -0.0394825 0.00930606 0.045467 0.0962579 0.0119452 0.0201723 -0.0631961 0.0115236 
-0.00755107 -0.0808554 0.0140405 0.130581 -0.0623752 0.0109526 0.121465 -0.0387407 0.00811495 
0.114189 -0.0444265 -0.00400704 0.181366 -0.0032105 0.0109948 0.142037 0.0187482 -0.00199385 
0.11628 0.000895565 -0.0102132 0.0975919 -0.0902838 -0.0295632 0.0984632 -0.0530021 -0.0224778 
0.117258 -0.0285807 -0.00259689 -0.0473014 0.0570408 0.0182543 -0.0641939 -0.00435907 -0.000814443 
-0.0555026 -0.00388716 0.00274056 -0.0954729 -0.0393343 -0.00749179 0.0369 0.108009 -0.019379 
-0.0322845 -0.0196193 0.0112911 -0.0747474 0.0937672 -0.0196395 -0.0622552 0.0633472 -0.0124239 
-0.0742104 0.0745344 -0.0126936 -0.119845 -0.0274015 0.00552249 -0.113733 -0.0173653 0.00157654 
-0.170724 -0.044965 -0.0287734 -0.0417245 0.013446 0.00399646 -0.0885518 0.0167555 0.00563757 
-0.0167847 -0.0462371 0.013879 -0.069905 0.0709993 -0.0137253 0.136468 -0.0744335 0.0322575 
0.0765318 -0.0610782 0.0230033 0.0815294 -0.0544343 0.0241457 0.0563318 0.132607 0.0209615 
0.0770566 0.129117 0.037355 0.0782332 0.133577 0.0245056 0.0920826 0.111117 0.0307673 
0.0848394 -0.0637724 -0.00416805 0.101086 -0.0688932 -0.0113405 0.0887203 -0.0748666 -0.00739888 
0.100146 -0.0763386 -0.0250748 -0.0747883 0.00873216 0.0175463 -0.0781152 0.00375237 0.0159187 
-0.0948211 0.0141838 -0.0756053 -0.115785 -0.00650389 -0.0977058 -0.102697 -0.00707313 -0.0759351 
-0.0471322 -0.0179093 0.00884648 -0.103773 0.018471 -0.0843285 0.089666 -0.0277936 -0.0130909 
0.0737439 -0.0381351 -0.00870595 0.120804 -0.0710021 -0.00232673 0.0963066 -0.0753034 0.0207588 
-0.115771 -0.0472612 -0.0325038 -0.116183 -0.0419341 -0.0293862 -0.125055 -0.0498009 -0.0414995 
-0.042049 0.037739 0.0110993 -0.0662873 0.0459726 0.0131893 -0.0418069 0.0261197 0.0104187 
-0.0855209 -0.0483821 -0.057263 -0.0920962 -0.0368573 -0.0587634 -0.0833713 -0.0333895 -0.0654804 
-0.126786 -0.0657061 -0.0696206 -0.0962549 -0.0969921 -0.0426887 -0.0578548 -0.0322403 0.00624749 
-0.106855 -0.00521541 -0.0167026 -0.128602 0.0139841 -0.0313767 -0.144424 -0.0106511 -0.044094 
-0.0776862 0.00569939 -0.00544308 -0.145316 0.134115 -0.0526877 -0.101014 0.108456 -0.0232293 
-0.0936911 0.0950074 -0.0232465 -0.110447 0.107292 -0.0405544 -0.0943892 0.0845533 -0.0256711 
-0.104123 0.0822573 -0.0359973 -0.10146 0.0198491 0.0116457 0.0176161 0.155047 0.0225018 
-0.0993219 0.109247 0.00130037 -0.0674384 0.068552 -0.00935759 -0.105576 0.110195 -0.0122834 
-0.101516 0.0815814 -0.0148279 -0.0827613 0.0742235 0.00249723 -0.125696 0.0736392 0.00548619 
-0.0786462 0.0821421 0.0104285 -0.0377613 -0.0955143 -0.027928 -0.0561263 -0.093483 -0.0403796 
0.0625154 -0.0851272 -0.0223442 0.04477 -0.0814694 -0.0181682 0.0347956 -0.0552616 -0.0219307 
0.0799986 -0.0823089 -0.00415988 -0.0782195 0.0482225 -0.0731537 0.112002 0.00686338 -0.012363 
-0.125777 0.130168 0.0275709 -0.0390728 -0.0913107 -0.0126206 -0.00134558 0.0360217 0.011958 
0.0648282 -0.0477348 0.000979844 -0.0660714 0.0499648 -0.0277457 -0.061814 0.0703936 -0.0340983 
-0.0803723 0.0584136 -0.0447145 -0.0114172 -0.142934 -0.0326605 0.000586458 -0.123117 -0.0132094 
-0.0920814 0.0940213 -0.0360328 -0.0530539 0.0398674 -0.0300824 -0.0682953 0.0456238 -0.0396736 
-0.0518299 0.0372347 -0.0326412 0.0369166 -0.0475892 0.0075698 -0.101246 -0.0368272 -0.0265115 
-0.111591 0.0983709 -0.0508879 -0.11497 0.0906859 -0.0524349 -0.142203 0.0278528 -0.0203895 
-0.070932 0.00739614 -0.00681226 -0.0662254 0.00957331 -0.000714264 -0.132735 0.0359832 -0.000807711 
-0.0796784 0.0529888 -0.0492581 0.0751049 -0.0717195 -0.00309259 0.101883 -0.104847 -0.0081087 
-0.120417 0.0650412 -0.0129745 -0.10488 0.0797196 -0.0383226 -0.0862891 0.0316916 0.00582843 
0.0261367 -0.10831 -0.0187565 0.0395079 -0.138209 -0.028052 0.0329177 -0.0704585 -0.0140437 
0.116708 0.0150563 -0.012875 0.0424327 0.0639096 0.0175819 0.0788886 0.0356374 0.0145177 
0.107547 0.0489602 0.0205105 0.0464312 0.0215699 0.00545624 0.0883321 -0.102426 -0.00940285 
0.0644796 -0.0703908 -0.000475152 0.0357815 -0.068274 -0.00468598 -0.107184 -0.000884914 0.0268767 
-0.0811116 0.00568619 0.0127185 -0.0685561 -0.00627585 0.00540097 -0.120466 0.0530829 -0.0756357 
-0.102127 0.0357401 -0.0688528 -0.124373 0.0218154 -0.0700371 -0.0934156 0.015543 -0.0618849 
-0.0600497 0.00383367 0.0199307 -0.108703 0.0705426 -0.0694649 0.0666745 0.100618 0.0251363 
0.0738833 0.0484706 0.0146999 -0.125121 -0.00556542 -0.0641067 -0.127355 -0.00813984 -0.0537666 
-0.143465 -0.0268255 -0.0472894 -0.14527 -0.0207902 -0.0332813 0.124988 0.0525254 0.00661546 
0.0909343 0.0550246 0.0188363 -0.122135 -0.0367925 -0.0421079 -0.11638 -0.0292374 -0.0339176 
-0.142375 -0.0513668 -0.0560541 -0.096656 -0.0351832 -0.0350127 -0.117365 -0.0504447 -0.0464465 
-0.115869 -0.0975351 -0.0725285 -0.113202 -0.0922222 -0.0733873 -0.0834832 -0.10501 -0.0780442 
-0.0590575 0.0620561 -0.0660278 -0.0619889 0.0485888 -0.0543529 -0.0447232 0.0705475 -0.0723838 
-0.0717906 0.0341662 -0.0501369 -0.0552174 0.033123 -0.0327584 0.0489361 0.0538516 0.0171595 
-0.0817755 -0.0105766 0.0160721 -0.122319 -0.00202778 0.0313441 -0.0858076 0.0970215 0.016271 
-0.0411077 0.0414643 0.0114621 -0.0645955 0.0705341 0.0145262 -0.0836287 0.0730122 0.0165498 
-0.0889815 0.0499328 -0.0570411 -0.0425985 -0.0422734 -0.0237834 -0.0427906 -0.0317716 -0.0308347 
-0.0455094 -0.0315291 -0.0264967 -0.137361 -0.0807931 -0.0694836 -0.11753 -0.0574065 -0.0557064 
-0.118724 -0.0766333 -0.0696111 -0.0753645 -0.0853154 -0.0639234 -0.0630846 -0.0489852 -0.0567581 
-0.0487947 -0.044097 -0.0457557 -0.0683022 -0.0375354 -0.064236 -0.0682821 -0.049629 -0.0610107 
-0.031759 0.0783478 -0.09153 -0.0243358 0.0810151 -0.0782205 -0.0599948 -0.0961861 -0.0545101 
-0.082589 -0.0956338 -0.0758208 -0.0677971 0.030127 -0.0513675 -0.0504725 0.029054 -0.0357011 
-0.0671248 0.0349254 -0.0495645 0.0193936 0.145214 0.00167644 -0.0247989 0.124945 0.0122235 
-0.103256 0.0150974 -0.037778 -0.0529039 0.043594 -0.0296655 -0.0551192 0.040438 -0.0356141 
-0.0268225 0.0611564 -0.0306916 -0.0479833 0.091398 -0.039602 -0.0525718 0.0709058 -0.0557481 
-0.0802635 0.0503383 -0.0457224 -0.0866792 0.048528 -0.0480527 -0.0704444 0.0636361 -0.0573681 
-0.0361637 -0.0780078 -0.0174541 -0.0350607 -0.0823308 -0.00203534 -0.0146992 -0.0580386 -0.0135001 
-0.048339 -0.0846039 -0.00765409 -0.0169074 -0.0969025 -0.0157245 -0.0105976 -0.0662697 -0.0213374 
0.129797 0.0531236 0.00157074 0.0552675 0.142215 0.0165128 0.0848401 0.15277 0.0359548 
-0.0754913 -0.0321046 -0.0128377 -0.076615 -0.0234299 -0.0113945 -0.00161227 -0.10081 -0.0397993 
-0.0264889 -0.0928189 0.00630996 -0.0835296 -0.0245776 -0.0206765 -0.113291 -0.0238085 -0.0237005 
-0.101074 -0.0335533 -0.0312933 -0.0786635 -0.00111692 0.0141157 -0.101091 0.00612937 0.0115253 
-0.1163 0.00399796 -0.00937843 -0.106192 -0.0178044 -0.0114447 0.0722048 -0.0713994 -0.00263731 
0.0591041 -0.0692318 -0.0168911 0.130734 0.0465486 0.0154129 0.116998 0.0300111 0.0114088 
-0.100888 0.0014151 0.0141824 -0.0682661 0.0513651 -0.0398871 -0.116049 -0.00338056 -0.00752909 
-0.0469429 0.054833 -0.0481155 -0.0458636 0.0826392 -0.0619149 -0.0313579 -0.0630494 -0.043688 
-0.0435117 -0.122122 -0.0962752 -0.0119817 -0.0821645 -0.0502031 -0.0633854 -0.0261201 -0.0155031 
-0.081483 -0.0394193 -0.021633 -0.0792375 -0.00731499 -0.0138122 0.0556542 0.0828539 0.0179824 
0.0456981 0.0691321 0.0171207 -0.0425634 0.0943109 -0.0790522 -0.035896 -0.069669 -0.0166687 
-0.0840637 0.0810902 0.00617114 -0.071031 0.0779264 0.00661587 0.0860203 -0.0832108 -0.0245905 
-0.0230986 0.00480875 -0.0013147 -0.0672486 0.00301866 0.000572695 -0.0960583 0.0078887 0.00844212 
0.0552266 -0.0544649 -0.0168555 0.0488258 -0.0390246 -0.0159801 -0.0612472 -0.0822964 -0.0611666 
-0.00890919 0.102801 -0.0167434 -0.0366798 0.0795827 -0.0156024 -0.0241342 0.1495 -0.0094924 
-0.0725395 -0.0328171 -0.0245912 0.0194927 -0.0175575 -2.46949e-05 -0.0207158 0.084526 -0.0589104 
-0.0133359 0.0173563 0.00749573 0.0401474 -0.0396563 -0.015939 -0.0794223 -0.0922944 -0.0703295 
-0.0779409 0.0323547 -0.0664459 -0.0410355 0.0162955 -0.0373327 -0.0670054 0.0328981 -0.0533279 
0.114622 -0.0596046 -0.018594 0.08176 -0.0452713 -0.0265449 -0.0605027 0.0255991 -0.047317 
-0.0682253 -0.0862239 -0.0112783 -0.0884331 -0.0801523 -0.0311797 -0.0582489 -0.0708236 -0.0231727 
0.0130428 0.0818904 -0.0625714 0.0147403 0.0804133 -0.051309 0.0279836 0.07858 -0.05117 
-0.0552588 0.0841481 -0.0104098 -0.0494919 0.0855137 0.00114689 -0.0459648 0.0515702 0.000311373 
-0.0221738 -0.102675 -0.0561895 -0.0172779 -0.0631261 -0.0410904 -0.0294509 -0.0825202 -0.0506901 
-0.0488581 -0.0910254 -0.066741 -0.0813351 -0.0372921 -0.032953 0.085255 -0.0363418 0.0154105 
0.0756713 -0.0463544 0.0148047 0.102924 -0.00286767 0.0135611 0.0967657 -0.0154594 0.0114607 
0.157971 -0.0286052 0.028437 0.127803 -0.0316991 0.0120818 -0.125584 0.0575506 -0.0339798 
0.133897 0.0219974 0.0155616 0.100389 0.00913295 0.013103 0.101367 0.0222554 0.0137725 
0.0169526 0.0564895 -0.0332681 -0.0812517 -0.0683801 -0.041022 -0.0472403 -0.0673816 -0.0186154 
-0.0451922 -0.0872834 -0.0340981 -0.0859027 -0.11441 -0.0490692 -0.0389883 -0.102197 -0.0450819 
-0.0929776 -0.108075 -0.0235566 -0.0966764 -0.0868196 -0.0420382 0.0530337 -0.109674 -0.0414113 
0.0528644 -0.0799671 -0.0225357 0.041868 -0.0922433 -0.0357019 0.0325164 -0.10931 -0.0478161 
0.0441523 -0.101318 -0.0315093 0.0542948 0.142977 0.00863623 0.0228122 -0.0766047 -0.0241674 
0.0227413 -0.0599426 -0.011683 0.0288532 -0.0751292 -0.00707309 0.0395658 -0.0725495 0.00608222 
0.0328893 -0.0505467 -0.000973297 0.0720475 -0.0861429 0.00909508 0.121455 0.0952501 0.000948335 
0.097959 0.105025 -0.010417 0.115381 0.10938 0.0132796 0.0986646 0.0923209 -0.0194784 
0.0629969 0.100919 0.03582 0.0983696 0.115964 0.0218441 0.119596 0.117905 0.029792 
-0.0439488 -0.0623257 -0.00503529 0.0580725 -0.0580753 -0.0113215 0.0747079 -0.0884951 -0.00927835 
0.0416292 0.0511383 -0.00823 0.0380018 0.0611842 -0.0121254 0.0534842 0.0700006 -0.00782333 
0.0496114 0.0907585 -0.0139389 0.065171 0.0694232 -0.0142667 -0.057523 0.0342676 -0.0820208 
-0.0660813 0.0521378 -0.0906851 -0.0518885 0.0666583 -0.0960476 -0.0650394 0.086009 -0.110695 
0.0193244 -0.102673 -0.0442152 0.155756 0.0831939 0.00980994 0.153557 0.0280435 0.0161557 
0.112883 0.0350011 0.0101682 0.0324093 0.0254212 -0.0585975 0.0415608 0.0258267 -0.0943583 
0.0175462 0.0367472 -0.1121 -0.0714478 0.0553432 0.00853851 0.158796 0.0417521 0.0134569 
0.0762872 -0.0688874 -0.00251938 0.130316 0.0361655 0.00891094 0.132699 0.054225 -0.00314948 
0.103229 0.0407675 -0.00323698 0.0196957 0.139151 -0.0749164 0.00215545 0.131478 -0.0878926 
-0.0132607 0.14682 -0.0751964 -0.102116 -0.0211454 -0.0823432 -0.0973459 -0.0362206 -0.0771957 
-0.0941462 -0.0216318 -0.0794246 -0.129076 -0.035802 -0.0918918 0.117191 -0.0470629 0.0374167 
0.0931409 -0.0408496 0.0273093 0.148031 -0.0383088 0.0287039 0.0823055 -0.00711547 0.0159191 
0.119086 0.00273173 0.00731194 0.0869197 0.000773929 -0.0149176 0.142436 -0.0492137 0.031399 
0.138143 -0.0495189 0.0264554 0.12615 -0.0475148 0.0298543 0.0135824 0.172025 -0.0579774 
0.114797 0.0548239 -0.00581162 0.126692 0.0605638 -0.0140783 0.133488 0.0968482 -0.0203119 
0.100234 0.0504382 -0.00763062 -0.0973286 0.0276962 -0.0740307 0.0634935 0.0501323 -0.0501603 
0.0470098 0.0523977 -0.0548944 0.0599525 0.0616951 -0.0513506 0.138743 -0.0443552 0.0310078 
0.131101 -0.0403015 0.0208327 0.146771 -0.0152531 0.0211967 0.0148478 0.0811801 -0.0781694 
0.0151162 0.0750209 -0.0754434 0.0388892 0.0924408 -0.0803184 -0.00744407 0.0853141 -0.0914083 
0.0829641 0.0466873 -0.0397695 0.0654047 0.0398183 -0.0465904 0.0753429 0.0544148 -0.0398658 
0.0544081 -0.0844984 0.0185905 0.0522123 -0.0652628 0.0186857 0.043766 -0.0780346 0.0171301 
0.0626232 -0.0788689 0.0252066 0.048243 -0.07894 0.0222003 0.0579898 -0.0815324 0.0268324 
0.0564461 0.0492381 -0.0298447 0.0637116 0.0655471 -0.0434319 0.0753613 0.0674488 -0.0342664 
0.0643524 0.0796521 -0.0428626 0.0948547 0.0859634 -0.0602291 0.0775208 0.0510388 -0.0377716 
0.0530253 0.088019 -0.0592512 -0.0564638 -0.0636056 -0.0497401 -0.0702295 -0.0561999 -0.0563688 
0.0711481 0.088095 0.0265216 0.0335475 0.0534601 0.0130151 0.049888 0.0723136 0.0196462 
-0.0875844 -0.0404175 -0.0819279 -0.0597967 -0.0343855 -0.049006 0.0805214 -0.0208645 -0.0142335 
0.0906687 -0.0146222 -0.012268 0.108313 -0.0139845 0.0174876 -0.0973283 -0.0721389 -0.039783 
0.0154438 -0.0280949 -0.012842 -0.0633128 -0.0632174 -0.0403821 -0.0525937 -0.0802509 -0.046089 
0.0940101 -0.105159 -0.00420654 0.0797776 -0.0747063 0.00112413 0.0593669 -0.0634167 -0.000479649 
0.0359496 0.149324 -0.00846763 -0.0222756 0.0264249 0.00850884 -0.0688478 -0.012452 -0.030937 
-0.0722948 -0.010091 -0.0293611 -0.104386 -0.0281128 -0.0401465 -0.102938 -0.107379 -0.0847999 
-0.0791877 -0.0644882 -0.0506042 0.0130236 0.0856249 -0.00451945 0.0077385 0.113378 -0.0180715 
-0.0762394 0.0202652 -0.0613334 0.010623 0.0757788 -0.06838 -0.00764867 0.0772579 -0.0857979 
-0.0949817 -0.0693521 -0.0620175 -0.00134261 -0.141825 -0.0946203 -0.084586 0.0534023 -0.0368611 
-0.0701712 -0.0455991 -0.000726854 -0.0237679 -0.100528 -0.0693526 0.0827159 0.0815556 0.0200741 
0.117824 0.102021 0.0270647 0.060883 -0.0769425 -0.000611979 -0.0640469 -0.107548 -0.0715605 
0.0549415 -0.0960672 -0.0230643 -0.0894432 -0.0461231 -0.0740159 -0.112683 -0.0519888 -0.0809707 
0.0352058 0.0562913 0.0165938 0.0800566 0.134108 0.00228789 0.028387 0.0726222 -0.0646867 
0.0169391 0.13546 -0.0295269 -0.0980063 0.0218464 -0.081704 -0.0971798 0.031577 -0.0834466 
-0.018965 0.0431971 0.0159011 0.00251231 0.0677809 -0.00785869 -0.0880999 -0.00106064 -0.0724924 
0.0954638 -0.0282536 0.0291734 -0.0306661 0.0812184 -0.0977991 -0.00906223 0.085835 -0.075868 
-0.0150036 -0.134868 0.0106292 -0.00297837 -0.147064 0.0106335 0.0192852 -0.106341 0.00995447 