# vtk DataFile Version 5.1
vtk output
ASCII
DATASET UNSTRUCTURED_GRID
POINTS 2395 float
-1.00086 2.63988 -1.77636e-15 -3.01613 1.04455 -1.77636e-15 -1.29309 2.41263 -1.77636e-15 
-1.57355 2.17758 -1.77636e-15 -1.84326 1.92748 -1.77636e-15 -2.07139 1.63404 -1.77636e-15 
-2.24708 1.30595 -1.77636e-15 -2.34874 0.945432 -1.77636e-15 -2.39082 0.555009 -1.77636e-15 
-2.39071 0.16612 -1.77636e-15 -2.36547 -0.218627 -1.77636e-15 -2.31639 -0.605191 -1.77636e-15 
-2.27121 -0.992213 0 -2.18423 -1.37028 0 -2.00945 -1.71257 0 
-1.8185 -2.04341 -0.0200196 -1.58758 -2.35105 0 -1.3342 -2.63144 -0.00697151 
-1.03016 -2.8582 0 -0.699058 -2.99168 -0.00249065 -0.30658 -2.99557 -0.00536442 
0.0567946 -2.82939 -0.00472834 0.39179 -2.65967 -0.0117762 0.734701 -2.441 -0.0096014 
1.06469 -2.2366 0 1.40841 -2.06698 0 1.6935 -1.85312 0 
1.93317 -1.63225 0 2.11033 -1.32782 0 2.28638 -0.99931 0 
2.41921 -0.615558 0 2.51963 -0.254536 -1.77636e-15 2.49873 0.125073 -1.77636e-15 
2.43935 0.489179 -1.77636e-15 2.31861 0.841712 -1.77636e-15 2.1391 1.1884 0 
1.94038 1.47191 -1.77636e-15 1.75616 1.77226 -1.77636e-15 1.54363 2.0774 0 
1.28884 2.32005 -1.77636e-15 1.00042 2.54162 -1.77636e-15 0.686371 2.75543 -1.77636e-15 
0.360407 2.9402 -1.77636e-15 0.0147329 3.07319 -1.77636e-15 -0.355333 3.03653 -1.77636e-15 
-0.696859 2.86545 -1.77636e-15 -2.90135 1.41557 -1.77636e-15 -2.73027 1.75352 -1.77636e-15 
-2.50864 2.05567 -1.77636e-15 -2.27375 2.35732 -1.77636e-15 -2.03371 2.64496 -1.77636e-15 
-1.79357 2.92572 -1.77636e-15 -1.51219 3.18413 -1.77636e-15 -1.18995 3.3879 -1.77636e-15 
-0.862066 3.5206 -1.77636e-15 -0.486239 3.59767 -1.77636e-15 -0.112606 3.62639 -1.77636e-15 
0.277575 3.59768 -1.77636e-15 0.651286 3.51932 -1.77636e-15 1.01723 3.37595 -1.77636e-15 
1.3741 3.19398 -1.77636e-15 1.71305 3.01558 -1.77636e-15 2.06448 2.84018 -1.77636e-15 
2.40911 2.66368 -1.77636e-15 2.661 2.443 -1.77636e-15 2.84478 2.127 0 
2.98625 1.78107 -1.77636e-15 3.0919 1.42622 -1.77636e-15 3.13724 1.08229 -0.0377042 
3.13416 0.704007 -1.77636e-15 3.06886 0.35031 -0.0507332 3.00376 -0.0176828 -0.0450298 
2.94828 -0.392185 -0.127443 2.86951 -0.767259 -0.156583 2.75393 -1.12575 -0.0798723 
2.60002 -1.45808 -0.00964847 2.40797 -1.76601 0 2.18187 -2.06104 -0.0849152 
1.9521 -2.3348 -0.0404876 1.70323 -2.60126 -0.0250359 1.43955 -2.86095 -0.00111474 
1.15219 -3.1413 -0.00960413 0.865014 -3.3728 0 0.529106 -3.63089 0 
0.165955 -3.85746 0 -0.243647 -3.97619 0 -0.610146 -3.86017 0 
-0.944591 -3.70964 0 -1.28682 -3.5621 0 -1.6337 -3.39192 0 
-1.9236 -3.15337 0 -2.19665 -2.8777 0 -2.43293 -2.56451 0 
-2.63043 -2.22877 0 -2.79186 -1.87407 0 -2.92138 -1.51228 0 
-3.03876 -1.15316 0 -3.14264 -0.791503 0 -3.19655 -0.42851 -1.77636e-15 
-3.20012 -0.0699674 -1.77636e-15 -3.15874 0.292161 -1.77636e-15 -3.10058 0.666214 -1.77636e-15 
-1.27228 -2.83832 -1.34388 -1.22033 -2.93054 -1.0067 -1.45103 -2.70943 -1.16674 
0.144165 3.23486 -0.732244 0.0684289 3.1758 -0.284154 0.372419 3.05945 -0.390982 
-0.508467 -3.11456 -0.247954 -0.160285 -3.0464 -0.255455 2.21978 1.18252 -0.35689 
2.07851 1.48658 -0.241293 -1.97074 -1.82263 -1.78502 -2.03841 -1.83669 -1.42796 
-2.12603 -1.54115 -1.68442 -1.83198 -2.08029 -1.62872 -2.39591 -0.06773 -0.293217 
-2.38461 -0.481787 -0.318922 0.2022 -2.87103 -0.332901 0.551239 2.91104 -0.200188 
0.837705 2.7409 -0.236714 0.639207 2.92502 -0.507683 -2.50052 0.473016 -0.954746 
-2.44304 0.38086 -0.617704 -2.45473 0.743109 -0.720156 -2.47737 0.137855 -0.89079 
0.541948 -2.61648 -0.303639 0.831727 -2.42928 -0.281193 -0.958426 3.09536 -0.883961 
-0.820302 3.24844 -1.11317 -1.04868 3.10784 -1.24283 -1.47525 -2.69831 -0.890584 
0.0477239 -3.02118 -0.815969 0.279078 -2.89951 -0.887581 0.183639 -2.94945 -0.618004 
0.413379 -2.7841 -0.560946 1.92886 1.68947 -0.107163 1.80239 1.96673 -0.172196 
-2.39058 1.46185 -0.853152 -2.26425 1.8218 -0.967552 -2.37897 1.58941 -1.23608 
-0.721411 -3.17332 -0.795024 -0.987518 -3.0811 -0.65065 -0.927455 -3.11672 -0.946971 
-2.31716 1.63208 -0.581178 -2.29662 -1.2058 -0.540248 -2.19501 -1.45012 -0.307826 
-2.30166 -1.10622 -0.246964 2.33593 0.843932 -0.544713 2.24912 1.14469 -0.833647 
-2.17798 -1.51274 -0.597518 2.48333 0.0997293 -0.437596 2.47116 -0.168814 -0.54477 
-2.34781 -0.791618 -0.20919 -2.0775 1.36299 -3.09117 -2.33788 1.22589 -2.67733 
-2.05805 1.63939 -2.84293 2.1909 1.40778 -1.63524 2.07683 1.72437 -1.6488 
2.09027 1.6031 -1.40943 -2.37232 -0.859804 -0.492774 2.44982 0.376143 -0.34132 
2.42514 -0.519062 -0.530184 0.845153 -2.44512 -0.586615 0.976158 -2.32323 -0.894314 
1.05935 -2.27893 -0.47812 -0.565891 3.13738 -0.267658 0.659918 -2.61365 -0.808919 
0.47512 -2.78112 -1.18252 0.210107 -2.93328 -1.21841 -1.10768 0.149661 -4.88949 
-1.26904 0.221351 -4.6997 -1.11131 0.436181 -4.91919 0.349611 -2.80896 -1.89702 
0.230912 -2.88567 -1.55252 0.00490383 -2.90245 -1.90838 2.18192 1.57447 -1.89902 
-1.51326 -2.58964 -1.45694 -1.31489 -2.73436 -1.68699 2.2762 1.32564 -1.97299 
2.27323 1.17022 -1.73212 1.46578 1.27223 -5.3498 1.70624 1.04733 -5.39909 
1.46986 1.08024 -5.55051 1.92312 -1.47972 -0.516723 2.1324 -1.1514 -0.507329 
1.6104 0.86745 -5.66828 2.35309 0.727235 -0.937166 2.2869 0.919839 -1.22781 
1.86431 2.06718 -0.989983 1.99131 1.82122 -1.13551 1.89351 2.06117 -1.31777 
-0.798512 3.11011 -0.545622 -1.09109 2.92698 -0.569988 -1.93747 -1.61291 -2.29207 
-1.71608 -1.93897 -2.38113 -1.84377 -1.88422 -2.11273 1.98798 1.82248 -0.792384 
2.43043 -0.291565 -0.897774 -1.79229 -1.65918 -2.67434 -1.79797 -2.06913 -1.9369 
-0.611302 3.28838 -0.823696 -2.42968 -0.589245 -0.676091 -2.46448 -0.651081 -1.02433 
-2.39174 -0.984939 -0.847588 -0.0713226 -3.06442 -0.57162 -2.4938 1.04966 -1.23999 
-2.47851 0.986627 -0.977351 -2.45615 1.27555 -1.06189 -1.23661 -0.0521975 -4.72383 
2.39844 0.621902 -0.347345 -2.53423 1.06815 -1.59975 -2.55685 0.790421 -1.3491 
-2.58793 0.787214 -1.69869 2.31417 -0.632979 -1.11811 2.36609 -0.204671 -1.34317 
0.625709 -2.17379 -3.58238 0.661047 -2.19189 -3.23278 0.412587 -2.23667 -3.42934 
-1.699 -2.34507 -1.50674 -1.65035 -2.29751 -1.85544 -1.53881 -2.50967 -1.70906 
-0.833484 -2.90178 -2.02845 -0.530875 -2.89661 -2.15724 -0.593297 -3.02564 -1.8177 
-0.206511 -3.13652 -0.922813 -1.84184 -2.12755 -1.31102 -1.67375 -2.4427 -1.14294 
-1.86906 -2.13278 -0.927897 -1.19015 -2.88563 -0.37011 -0.295202 3.30718 -0.538139 
1.47005 -1.82459 -2.32286 1.62131 -1.62085 -2.14525 1.41806 -1.86885 -2.06796 
1.67891 -1.56293 -2.47695 -1.43329 2.53319 -0.365167 -1.16082 2.70815 -0.23805 
-1.32004 2.72583 -0.58075 -1.52699 2.56283 -0.737171 2.30258 -0.856188 -0.53589 
2.3642 -0.683056 -0.808625 -0.307174 -2.99343 -1.94128 -0.44143 -3.19701 -0.735374 
-0.63317 1.63577 -4.79424 -0.71449 1.84252 -4.56911 -0.425201 1.82813 -4.81308 
-0.129976 3.32538 -1.8716 0.111107 3.29967 -1.59262 0.330008 3.23613 -1.91407 
-1.49549 -2.66214 -0.549394 -1.69722 -2.34588 -0.372458 -1.69498 -2.4464 -0.729131 
-1.48555 -2.60299 -0.26564 -1.2805 -2.89658 -0.683736 -0.82889 2.90397 -0.279369 
-2.1078 -1.7586 -0.815075 -2.24125 -1.39947 -0.866674 -2.17679 -1.62491 -1.11363 
2.41788 0.467633 -0.65104 1.14528 2.58179 -3.75828 1.02415 2.77993 -3.35883 
1.3652 2.50913 -3.51735 0.936372 -2.12411 -3.46625 0.827938 2.69638 -3.77135 
0.697375 2.93176 -3.36777 0.569764 3.04183 -3.03098 0.903689 2.93429 -3.01924 
-2.3775 -1.07182 -1.40706 -2.31211 -1.2442 -1.15169 -2.41723 -0.942515 -1.15506 
-1.85511 -2.19082 -0.615068 0.380522 3.20798 -1.51892 -0.363779 -3.15221 -0.465162 
-0.656993 -3.17878 -0.50658 2.11353 -0.855803 -2.48774 2.2447 -0.474317 -2.38281 
2.15532 -0.734495 -2.06076 2.38343 0.394026 -1.80197 2.35711 0.578492 -1.35157 
2.36929 0.206369 -1.38701 1.99995 -1.33103 -0.912954 2.22801 -0.979243 -0.869898 
2.26052 -0.373282 -1.97537 -1.6889 2.37266 -0.524719 -2.45345 0.643421 -0.313794 
-2.41099 0.270805 -0.275619 -2.22321 -1.43791 -1.4255 0.658498 3.11659 -2.71921 
-1.91822 -2.00011 -0.362506 -0.931651 3.08251 -2.15916 -1.19997 2.86856 -2.0775 
-1.1466 3.01779 -1.80305 -2.5061 -0.70755 -1.36166 -2.57754 -0.326025 -1.46329 
-2.47046 -0.599993 -1.84086 -2.30642 1.50275 -0.279409 -2.39273 1.28252 -0.486854 
-0.866384 -3.06827 -0.293672 -1.12759 2.90098 -2.37996 2.15087 -1.07436 -3.2064 
1.96912 -1.36232 -3.28509 2.11297 -1.29591 -3.61173 0.712594 3.08543 -1.64537 
0.979801 2.93874 -1.41659 1.0325 2.97751 -1.78432 1.35265 2.71078 -1.53172 
1.79421 -1.4087 -1.93801 1.96067 -1.17578 -1.69272 1.76297 -1.46943 -1.55661 
1.98274 -1.22245 -1.29868 -2.55469 0.506352 -1.26567 -2.49535 0.752665 -1.0839 
-1.60106 0.454592 -4.29002 -1.48549 0.0916984 -4.48154 -1.7489 0.0920755 -4.12943 
-2.07611 -1.73658 -0.463996 -1.33697 0.523375 -4.61958 2.2257 -0.614334 -1.73393 
2.10234 -0.895493 -1.7976 1.99106 -1.08608 -2.13417 1.89649 -1.33704 -2.91957 
-2.13468 -1.27128 -2.18446 -2.30504 -0.853356 -2.18775 -2.1391 -1.02934 -2.50715 
-1.99062 2.04244 -0.406586 -2.18076 1.89228 -0.651147 -2.14725 1.79857 -0.273376 
-1.49984 -0.911765 -4.03225 -1.67075 -0.576862 -4.00916 -1.46979 -0.599084 -4.29643 
-1.70308 -0.875429 -3.70962 -1.38955 -2.52959 -2.04913 -2.00854 -1.97498 -0.624986 
-2.53665 0.482862 -2.34443 -2.50128 0.796222 -2.55655 -2.43852 0.410199 -2.7241 
-2.52226 0.758121 -2.23799 -1.58362 2.38723 -2.46744 -1.6847 2.48274 -1.96245 
-1.40206 2.67655 -2.21618 -1.91112 2.18334 -2.18367 -1.25245 2.67985 -2.6266 
-1.35628 2.50131 -2.90527 -2.46253 1.33478 -1.43116 -0.226203 3.37217 -0.935515 
-1.72913 2.47384 -1.52859 -1.92398 2.29562 -1.74844 -1.44074 2.70354 -1.76934 
-2.12648 2.05099 -1.86796 -2.03273 2.18879 -1.48321 -2.25604 1.88955 -1.47334 
-1.90641 2.29621 -1.16223 -0.954467 -2.94122 -1.77367 -1.10152 -2.77569 -2.06812 
1.24035 -2.07841 -0.674037 1.46776 -1.86625 -0.818017 1.52702 -1.93409 -0.431593 
1.248 -2.08187 -1.03127 -0.90262 1.57408 -4.63077 2.45999 0.0878719 -0.806934 
-1.27116 2.8225 -0.990744 -0.997118 -3.05387 -1.22646 -0.22473 3.20769 -0.171016 
1.83231 -1.35991 -2.22798 -1.19189 2.55412 -3.17299 -0.948434 2.7143 -3.3662 
[...]
POINT_DATA 2395
FIELD FieldData 1
Nodal_area 3 2395 float
0 0 0 0 0 0 0 0 0 
0 0 0 0 0 0 0 0 0 
0 0 0 0 0 0 0 0 0 
0 0 0 0 0 0 0 0 0 
0 0 0 0 0 0 0 0 0 
0 0 0 0 0 0 0 0 0 
0 0 0 0 0 0 0 0 0 
0 0 0 0 0 0 0 0 0 
0 0 0 0 0 0 0 0 0 
0 0 0 0 0 0 0 0 0 
0 0 0 0 0 0 0 0 0 
0 0 0 0 0 0 0 0 0 
0 0 0 0 0 0 0 0 0 
0 0 0 0 0 0 0 0 0 
0 0 0 0 0 0 0 0 0 
0 0 0 0 0 0 0 0 0 
0 0 0 0 0 0 0 0 0 
0 0 0 0 0 0 0 0 0 
0 0 0 0 0 0 0 0 0 
0 0 0 0 0 0 0 0 0 
0 0 0 0 0 0 0 0 0 
0 0 0 0 0 0 0 0 0 
0 0 0 0 0 0 0 0 0 
0 0 0 0 0 0 0 0 0 
0 0 0 0 0 0 0 0 0 
0 0 0 0 0 0 0 0 0 
0 0 0 0 0 0 0 0 0 
0 0 0 0 0 0 0 0 0 
0 0 0 0 0 0 0 0 0 
0 0 0 0 0 0 0 0 0 
0 0 0 0 0 0 0 0 0 
0 0 0 0 0 0 0 0 0 
0 0 0 0 0 0 0 0 0 
0 0 0 0 0 0 0 0 0 
-0.0604616 -0.0737012 -0.0129089 -0.0703066 -0.0939603 -0.0065688 -0.0558183 -0.0544998 -0.00667244 
0.0575287 0.155164 0.0253455 0.0208796 0.070983 0.0141851 0.0359009 0.0674838 0.0123145 
0.000731887 -0.0383333 0.0112859 0.0169339 -0.0442086 0.00969739 0.0723722 0.0242501 0.0051605 
0.0500417 0.0204533 0.0112629 -0.0858434 -0.0483962 -0.0182272 -0.111193 -0.0630331 -0.0175645 
-0.0840403 -0.0413487 -0.0157947 -0.0814499 -0.0526372 -0.0132287 -0.0478958 -0.00183213 0.00556632 
-0.0672983 -0.00426134 0.00883811 0.0327528 -0.0548941 0.0131936 0.015966 0.0261073 0.00575447 
0.0346286 0.0557634 0.0118393 0.0523398 0.0861428 0.0163332 -0.0905921 0.00407068 0.0172186 
-0.116055 -0.00401766 0.011276 -0.130061 0.00173289 0.00908807 -0.100451 0.00228477 0.0235353 
0.0218327 -0.031195 0.00837115 0.0223938 -0.0312624 0.00399277 -0.0724108 0.0959992 0.0229537 
-0.0392823 0.0706711 0.0114856 -0.0709215 0.081292 0.00986194 -0.0778954 -0.0722819 -0.00206176 
0.0241023 -0.0507574 0.00274098 0.0642955 -0.0981526 0.00367412 0.0303029 -0.0529468 0.00663921 
0.0544188 -0.0745513 0.0116246 0.027236 0.0141364 0.0106056 0.0520465 0.0399002 0.0161898 
-0.107918 0.0315449 0.00952268 -0.125237 0.0671011 0.0111787 -0.108227 0.0391711 0.00742687 
-0.0135222 -0.0664327 0.000532245 -0.054786 -0.106496 0.0114591 -0.0286553 -0.0682583 -0.00357482 
-0.0984726 0.0408156 0.0147708 -0.102404 -0.0329554 0.00754166 -0.0422229 -0.0160251 0.00227601 
-0.0463646 -0.0111579 0.00425648 0.0898698 0.0236749 -0.00131039 0.160179 0.0482619 -0.0033509 
-0.0699971 -0.027487 0.00461565 0.0551239 0.00510862 -0.00354154 0.057689 -0.00426128 -0.00442767 
-0.030331 -0.0036266 0.00349347 -0.101559 0.058898 -0.0592909 -0.18375 0.0740883 -0.068395 
-0.0925884 0.0577437 -0.0445068 0.0741292 0.0242865 0.0122 0.0694355 0.0274209 0.0114207 
0.0843952 0.0310381 0.00647077 -0.105138 -0.0167534 0.0122895 0.0283307 0.00486246 -0.00148526 
0.0569984 -0.0124152 -0.00367633 0.048891 -0.0604293 0.00218932 0.100924 -0.106919 0.0023795 
0.0455967 -0.0543733 -0.0056969 -0.0258975 0.0547113 0.0232567 0.0853095 -0.106718 0.00911983 
0.0706484 -0.104513 -0.00364235 0.0367845 -0.0666655 -0.00570194 -0.0528006 -0.00362969 -0.0435388 
-0.0548802 -0.00155744 -0.0479356 -0.0823274 0.010574 -0.0716518 0.0385722 -0.0841908 -0.0202658 
0.0645671 -0.140068 -0.0161859 0.0342265 -0.111471 -0.0255234 0.0706609 0.0257529 0.011847 
-0.0681876 -0.0624397 -0.0117763 -0.0813685 -0.0996844 -0.0286558 0.0895386 0.0255634 0.0128119 
0.0675186 0.017357 0.0110481 0.0407523 0.066715 -0.0559636 0.0544034 0.0639756 -0.0530771 
0.0294236 0.0494068 -0.0473584 0.054991 -0.0434497 -0.00852051 0.0614274 -0.0382367 -0.00209888 
0.0467595 0.0662229 -0.0665655 0.136954 0.0293095 -0.00695796 0.124833 0.0313124 0.000863633 
0.0935557 0.0583377 0.00815 0.0865057 0.037749 0.00335375 0.0741051 0.0374856 0.00884371 
-0.052827 0.0794377 0.0320639 -0.0712711 0.0940885 0.0339225 -0.0950686 -0.0516276 -0.0307554 
-0.0774615 -0.0502822 -0.0296524 -0.0778045 -0.0456743 -0.0258532 0.111209 0.0563179 0.00174518 
0.149548 -0.0203988 -0.0205416 -0.130215 -0.0810188 -0.0592782 -0.05957 -0.0381423 -0.0148131 
-0.043945 0.121233 0.0244769 -0.115121 -0.0131298 0.0172017 -0.104478 -0.020228 0.0154241 
-0.133909 -0.0343602 0.0109324 0.0408452 -0.0985021 0.0122531 -0.0833119 0.0116644 0.00936886 
-0.0655678 0.00318381 0.00537951 -0.0896148 0.0174758 0.00601187 -0.0716603 -0.00847607 -0.0631123 
0.0289071 0.00642363 -0.00141263 -0.0951351 0.0187284 0.00544245 -0.0879375 0.00942519 0.0126091 
-0.0909464 0.0104767 -0.00054726 0.140474 -0.0441282 -0.024922 0.1339 -0.0157695 -0.0211823 
0.00100795 -0.108815 0.00135681 0.0221193 -0.0859609 -0.0173876 0.00367965 -0.0893106 -0.0254222 
-0.0786558 -0.0517581 -0.012124 -0.0785833 -0.0576805 -0.0219224 -0.0552493 -0.0477809 -0.0158199 
-0.020036 -0.0718521 -0.0299052 -0.00742262 -0.100121 -0.0488833 -0.0110209 -0.105817 -0.0308402 
0.0244498 -0.0937112 -0.00165966 -0.090792 -0.0589648 -0.00930972 -0.114958 -0.080499 -0.00956615 
-0.114369 -0.0722976 -0.00755512 -0.0450813 -0.0599399 0.0149959 0.00143728 0.146257 0.0325312 
0.055474 -0.0519937 -0.00255006 0.0762619 -0.0606225 -0.000708327 0.0837002 -0.077308 -0.00261258 
0.0873536 -0.0715102 -0.000164702 -0.0391239 0.0431433 0.0169623 -0.0312148 0.0428638 0.0212885 
-0.0603441 0.0665169 0.0190825 -0.0772831 0.0889887 0.0186835 0.0477401 -0.0222781 -0.00114094 
0.0865633 -0.027102 -0.0105518 0.0108402 -0.0806269 -0.0262509 0.0121471 -0.0925685 0.00166461 
-0.0434814 0.04515 -0.0571563 -0.0524016 0.0539481 -0.0656481 -0.0495426 0.0664645 -0.0814374 
0.0182329 0.145853 -0.0142677 0.0254254 0.0972687 -0.00263889 0.042604 0.162848 -0.00130975 
-0.0792675 -0.0728858 0.0140573 -0.0565689 -0.0404337 0.0117491 -0.0958791 -0.0692591 0.00312506 
-0.0255492 -0.0239766 0.00589304 -0.0561988 -0.0685086 0.00666291 -0.02905 0.0427198 0.0268091 
-0.106546 -0.0500367 0.0036771 -0.105928 -0.0387793 0.00644823 -0.101873 -0.0437 -0.00308864 
0.134626 0.0235977 -0.00809046 0.0484481 0.0881606 -0.0396814 0.0608943 0.121512 -0.0436433 
0.0695589 0.102802 -0.0407729 0.0261102 -0.116359 0.00759735 0.0428352 0.122816 -0.0635815 
0.040919 0.136155 -0.0473362 0.0224326 0.0972154 -0.0263583 0.0547644 0.128947 -0.0344877 
-0.0837661 -0.0321305 -0.00140205 -0.100178 -0.0366696 0.00108664 -0.073514 -0.0214505 0.00453581 
-0.0625077 -0.0418278 0.00664424 0.0412602 0.103583 0.00695465 0.0137981 -0.0650872 0.0113821 
-0.0126644 -0.0824972 0.0127293 0.139474 -0.0638513 0.0117624 0.123807 -0.0388906 0.00891551 
0.121049 -0.0452545 -0.00257454 0.185552 -0.00514027 0.0124723 0.14582 0.016944 -0.000866358 
0.11995 -0.000554878 -0.008773 0.113731 -0.0880563 -0.018295 0.102175 -0.0544078 -0.0142364 
0.121807 -0.0293009 -0.00102353 -0.0516883 0.0603902 0.0201548 -0.0648738 -0.00231849 0.00132628 
-0.0564847 -0.00345986 0.00471338 -0.0991391 -0.0437501 -0.0101915 0.032116 0.114005 -0.0211438 
-0.0347426 -0.0211402 0.00929976 -0.0702906 0.0994474 -0.0211537 -0.0614785 0.0670995 -0.0137933 
-0.0734174 0.0814107 -0.0142109 -0.126661 -0.0314751 6.96088e-05 -0.118853 -0.0194116 -0.00325978 
-0.176882 -0.0476644 -0.032965 -0.0442231 0.0159972 0.00761986 -0.0911911 0.0215473 0.00985154 
-0.0196342 -0.0487721 0.0120353 -0.0677537 0.074704 -0.0159444 0.142408 -0.075468 0.0326216 
0.0818137 -0.0631038 0.0233776 0.0860956 -0.0556178 0.0246047 0.0543377 0.140142 0.0163231 
0.072822 0.133407 0.02841 0.0752554 0.141084 0.0181384 0.0850303 0.119881 0.0249229 
0.095283 -0.0662919 -0.0029962 0.112387 -0.0704229 -0.0104439 0.102028 -0.0783377 -0.0063305 
0.109202 -0.0767343 -0.0180263 -0.0781645 0.00848022 0.0129678 -0.0804116 0.00581507 0.0127909 
-0.0998593 0.0153184 -0.0781561 -0.120804 -0.00584212 -0.100435 -0.108289 -0.00667749 -0.078538 
-0.0502508 -0.0207364 0.00679681 -0.106845 0.0200206 -0.0868949 0.095878 -0.0284918 -0.0118191 
0.0808729 -0.0384515 -0.00813076 0.135005 -0.072917 -0.00159715 0.103403 -0.0780038 0.0215729 
-0.122375 -0.052141 -0.0344154 -0.12131 -0.0444597 -0.0315908 -0.131417 -0.0535494 -0.0434675 
-0.0440814 0.0397136 0.0116446 -0.0684834 0.048874 0.0134803 -0.0435721 0.0275791 0.0113523 
-0.0899099 -0.0508136 -0.0592597 -0.0967906 -0.0387326 -0.0605418 -0.0877935 -0.0356535 -0.0677922 
-0.132974 -0.0686404 -0.0720846 -0.0999111 -0.0988044 -0.0425155 -0.0609438 -0.0341528 0.00401742 
-0.113888 -0.00362167 -0.0202609 -0.133391 0.0167631 -0.0336262 -0.15099 -0.00821176 -0.0451559 
-0.0814323 0.00742416 -0.00883674 -0.150542 0.14025 -0.0569439 -0.104647 0.113397 -0.0261158 
-0.0952207 0.100107 -0.0262158 -0.116673 0.111008 -0.0442683 -0.0944946 0.0894358 -0.0283512 
-0.103242 0.086017 -0.0380478 -0.105947 0.0248752 0.00640356 0.0155126 0.163413 0.0179743 
-0.103612 0.114384 -0.00144426 -0.0710344 0.071277 -0.0108126 -0.10784 0.116958 -0.0148501 
-0.109252 0.0855104 -0.0181511 -0.087494 0.0780822 0.000518048 -0.133363 0.0799822 0.00156441 
-0.0840989 0.0861847 0.00857651 -0.0423872 -0.0965364 -0.0285902 -0.0590662 -0.0948221 -0.0398805 
0.0757136 -0.0882729 -0.0136023 0.061956 -0.0793722 -0.0115873 0.0430107 -0.0534252 -0.012933 
0.0919933 -0.0928276 -0.0027089 -0.0792778 0.0520262 -0.0767921 0.116422 0.005288 -0.0113605 
-0.12788 0.140882 0.024112 -0.0435516 -0.0927199 -0.0139943 -0.00207729 0.039006 0.0109693 
0.0714367 -0.0495814 0.000725581 -0.0638165 0.0526271 -0.0290186 -0.0582385 0.0733809 -0.0370856 
-0.0768616 0.0625183 -0.0463603 -0.0213816 -0.146199 -0.0323126 -0.0088806 -0.12647 -0.0139802 
-0.0881798 0.0986317 -0.0389213 -0.0546497 0.0408745 -0.0312368 -0.0695404 0.0472152 -0.0410353 
-0.0536305 0.0372968 -0.0333681 0.0380044 -0.0506575 0.00764516 -0.105543 -0.0400881 -0.0277716 
-0.119005 0.101117 -0.0544071 -0.118495 0.0942203 -0.0544907 -0.147511 0.0325653 -0.0249274 
-0.0714163 0.00875263 -0.00791614 -0.0697768 0.0116637 -0.00361051 -0.141749 0.041426 -0.00735761 
-0.0829817 0.0536686 -0.0513398 0.0873938 -0.0814823 -0.00297556 0.113346 -0.118064 -0.00713736 
-0.129403 0.0687503 -0.0178073 -0.112346 0.0815815 -0.0420479 -0.0921726 0.0351928 0.00148854 
0.0176854 -0.113165 -0.0178004 0.0299175 -0.14544 -0.0300575 0.0285975 -0.0739946 -0.0128965 
0.120167 0.0132331 -0.0115708 0.043411 0.067798 0.0158928 0.0841043 0.035665 0.0133148 
0.115751 0.0479318 0.0189297 0.0515666 0.0214731 0.00497722 0.0922055 -0.111613 -0.00951253 
0.0688389 -0.0777656 0.000402129 0.0315749 -0.0722238 -0.00418746 -0.112779 -0.0028671 0.0208415 
-0.0870235 0.00424837 0.00742517 -0.072953 -0.00627414 0.00133994 -0.12637 0.0550074 -0.0767034 
-0.108732 0.0378178 -0.0715038 -0.13052 0.0238881 -0.072171 -0.0985403 0.0170733 -0.0637701 
-0.0629953 0.00305781 0.0159956 -0.117782 0.0729525 -0.072997 0.0646186 0.106618 0.0220941 
0.077119 0.0488415 0.0138631 -0.132188 -0.00516136 -0.0669527 -0.13328 -0.00649159 -0.0553944 
-0.151518 -0.0278483 -0.0498217 -0.151764 -0.0204511 -0.0361091 0.134181 0.0505573 0.00572778 
0.0999025 0.0551868 0.0185193 -0.128184 -0.038611 -0.04421 -0.121486 -0.0307593 -0.0357427 
-0.147722 -0.053998 -0.0584967 -0.0996191 -0.0367691 -0.0360492 -0.122155 -0.0531668 -0.0483549 
-0.118388 -0.0995116 -0.0709637 -0.117073 -0.0940648 -0.0724901 -0.0882384 -0.107448 -0.0773378 
-0.0582759 0.0662156 -0.0688717 -0.0626531 0.0510063 -0.0571211 -0.0462751 0.0770719 -0.0779309 
-0.0738033 0.0382467 -0.0541735 -0.0553306 0.0354373 -0.0354143 0.0514442 0.0560713 0.0156974 
-0.0857097 -0.0125699 0.0120786 -0.12667 -0.00530876 0.0277593 -0.0909357 0.102638 0.0136527 
-0.0445324 0.0440653 0.0123574 -0.0696364 0.0742626 0.0147601 -0.0886351 0.0772963 0.0163787 
-0.0917145 0.0516187 -0.0599746 -0.0434431 -0.0444802 -0.0271591 -0.043742 -0.0351116 -0.0336647 
-0.0461363 -0.0340096 -0.0278987 -0.142528 -0.0836255 -0.0705644 -0.12487 -0.0610091 -0.0584073 
-0.124257 -0.0799102 -0.0714175 -0.0767477 -0.0883123 -0.0677554 -0.0665149 -0.0523512 -0.0614623 
-0.051316 -0.0461383 -0.0483376 -0.0726902 -0.040852 -0.0683731 -0.071566 -0.0518166 -0.0630993 
-0.0343597 0.083889 -0.0976325 -0.0266087 0.0856168 -0.0822077 -0.0624037 -0.0994833 -0.058504 
-0.0855581 -0.0982663 -0.0789106 -0.0711524 0.0321877 -0.0533285 -0.0527658 0.0301113 -0.0370765 
-0.0703116 0.037094 -0.0521591 0.0192476 0.150787 -0.0031084 -0.0251327 0.131714 0.00811444 
-0.10773 0.0175256 -0.0387348 -0.0569409 0.0446587 -0.0313424 -0.0594489 0.0407021 -0.037786 
-0.0242945 0.0628036 -0.0328057 -0.0437505 0.0948694 -0.0418365 -0.0489594 0.0753162 -0.0562148 
-0.0802526 0.0521992 -0.0476686 -0.0865504 0.0536039 -0.0505552 -0.0672982 0.0674573 -0.0583111 
-0.0363754 -0.0815591 -0.0222199 -0.0353564 -0.0872257 -0.0059007 -0.0146807 -0.0616927 -0.0177249 
-0.0490155 -0.0878692 -0.0093076 -0.0160966 -0.103288 -0.0232224 -0.0116153 -0.0693706 -0.0252199 
0.137405 0.0501992 -0.00090292 0.0533151 0.148994 0.0101425 0.0794426 0.161573 0.0272078 
-0.0781454 -0.0345472 -0.0142244 -0.0803838 -0.0263695 -0.0132207 -0.0050533 -0.106873 -0.0465149 
-0.0265878 -0.0960532 0.00415237 -0.0862839 -0.0254112 -0.022226 -0.117511 -0.0246241 -0.0259736 
-0.106102 -0.0352958 -0.0329107 -0.0805196 -0.00283517 0.0148641 -0.106777 0.00699899 0.0048743 
-0.12183 0.00491514 -0.0130037 -0.110664 -0.0179846 -0.0151589 0.0838123 -0.076235 -0.00237869 
0.0725248 -0.0732965 -0.0116661 0.134266 0.0457697 0.0138698 0.119201 0.029132 0.0093851 
-0.103251 -0.000367275 0.0154512 -0.0714667 0.0515154 -0.0414101 -0.122201 -0.00392774 -0.0119566 
-0.045122 0.0576849 -0.0502669 -0.0429258 0.0869264 -0.063555 -0.0328802 -0.0643229 -0.0417258 
-0.0491408 -0.126535 -0.0945289 -0.0162529 -0.0841101 -0.0506075 -0.0660087 -0.0287591 -0.0163699 
-0.0845318 -0.0423638 -0.0223383 -0.0830599 -0.00786951 -0.0154526 0.0504852 0.0896323 0.014894 
0.0431224 0.0746181 0.0141599 -0.0426565 0.100681 -0.0829305 -0.0398291 -0.0708209 -0.0170509 
-0.0842395 0.088366 0.00304524 -0.0748525 0.0833753 0.00376399 0.0991224 -0.0848503 -0.0163482 
-0.0242646 0.00596905 0.00186332 -0.0680164 0.00565203 0.00318986 -0.0969826 0.0116811 0.00807025 
0.0619943 -0.0566116 -0.0110553 0.0545823 -0.0421269 -0.0107442 -0.0650916 -0.0841512 -0.0596872 
-0.00741484 0.108545 -0.0193872 -0.03347 0.0848994 -0.0167763 -0.0229463 0.155783 -0.0139173 
-0.076737 -0.0356594 -0.025684 0.0214196 -0.0186768 -2.19562e-05 -0.0204432 0.0890701 -0.0601776 
-0.0146774 0.0184674 0.00861985 0.0462439 -0.0420229 -0.0104507 -0.0831651 -0.0941796 -0.0705981 
-0.0791417 0.0372859 -0.0708021 -0.0433869 0.0184201 -0.039173 -0.0691076 0.0357906 -0.0561109 
0.126697 -0.0600427 -0.0183718 0.0859656 -0.0461652 -0.0167355 -0.0625366 0.0275724 -0.0491336 
-0.0680882 -0.0874783 -0.0135317 -0.0889039 -0.083784 -0.0338252 -0.0585137 -0.0710662 -0.0241562 
0.0117359 0.0861334 -0.0644361 0.0128038 0.0834987 -0.0527513 0.0261612 0.081956 -0.0532127 
-0.0520124 0.089869 -0.0121162 -0.0467349 0.0899422 -0.00122955 -0.0437564 0.0552303 -0.0014069 
-0.024523 -0.107153 -0.0602588 -0.0216242 -0.0654587 -0.0423645 -0.0338205 -0.0859944 -0.0536373 
-0.0549746 -0.0942483 -0.0690029 -0.0841317 -0.0393237 -0.0334593 0.0890918 -0.0373081 0.016257 
0.0828627 -0.0480467 0.0162694 0.102608 -0.00342437 0.0136158 0.0987652 -0.0163923 0.0124578 
0.158001 -0.0288386 0.0280251 0.128368 -0.0321472 0.013215 -0.13349 0.0600851 -0.0378039 
0.134735 0.0210861 0.0131636 0.0999186 0.00807824 0.0129695 0.10361 0.0210306 0.0129694 
0.0157144 0.0589933 -0.0344787 -0.0821831 -0.0715793 -0.0422206 -0.0468586 -0.0698432 -0.0207749 
-0.0454727 -0.0897633 -0.0383712 -0.0861507 -0.116763 -0.0540536 -0.0396285 -0.105196 -0.0504673 
-0.0927605 -0.112318 -0.0290473 -0.096267 -0.0893457 -0.0455614 0.0507877 -0.11808 -0.0456577 
0.0536623 -0.087474 -0.0233681 0.0386619 -0.0991184 -0.0378413 0.031697 -0.115968 -0.0519814 
0.0455787 -0.108855 -0.036702 0.0525412 0.15123 0.00315939 0.0231646 -0.0831953 -0.0279621 
0.0238222 -0.0645042 -0.0149356 0.0320529 -0.0780293 -0.0110235 0.041861 -0.076116 0.00387452 
0.0355771 -0.053548 -0.00369906 0.0784162 -0.0914866 0.00789478 0.12798 0.0969891 -0.0063666 
0.0977603 0.107456 -0.014489 0.113447 0.113543 0.00654175 0.105867 0.0941629 -0.0223645 
0.0587698 0.103691 0.0263692 0.0899943 0.125171 0.0149212 0.121216 0.120984 0.0249577 
-0.0440832 -0.0639775 -0.00783325 0.0621546 -0.0672728 -0.0125699 0.080873 -0.0968262 -0.0103849 
0.0387458 0.0537845 -0.0115714 0.0341245 0.0645268 -0.0148523 0.0487085 0.0753154 -0.0082465 
0.0447924 0.0972427 -0.014985 0.0640138 0.0722215 -0.0179511 -0.059029 0.0405773 -0.0860855 
-0.0674952 0.0567237 -0.0947549 -0.0534758 0.0715864 -0.101373 -0.0673394 0.0908966 -0.116942 
0.0143443 -0.106207 -0.044298 0.167176 0.0821958 0.00557913 0.156955 0.0261342 0.016686 
0.115774 0.0334962 0.0095909 0.0323764 0.0240103 -0.0605337 0.0416071 0.0258448 -0.0951833 
0.0186983 0.0358505 -0.115165 -0.0754999 0.0589728 0.00736699 0.160829 0.0401782 0.0104438 
0.0854299 -0.0718564 -0.00208037 0.132389 0.0356822 0.00697815 0.142505 0.0524264 -0.00481811 
0.10752 0.0402969 -0.00480151 0.0163565 0.1454 -0.0740336 -0.000350426 0.138443 -0.0884012 
-0.0125835 0.151609 -0.075565 -0.104079 -0.019169 -0.0869036 -0.100805 -0.0367078 -0.0815394 
-0.0966065 -0.021486 -0.0826206 -0.132421 -0.0357408 -0.0998186 0.120899 -0.0469232 0.0358584 
0.096924 -0.0403965 0.0264631 0.152806 -0.0377672 0.0274143 0.0859537 -0.00784713 0.0140765 
0.125176 0.00351299 0.00610327 0.0898007 -0.000186899 -0.0137172 0.145229 -0.0496041 0.0305438 
0.141018 -0.0502195 0.0265084 0.130329 -0.0485918 0.029648 0.0114701 0.178042 -0.0604332 
0.118856 0.0542002 -0.00966578 0.133827 0.0588757 -0.0162825 0.142092 0.0974096 -0.0240994 
0.105853 0.0523028 -0.00895759 -0.105838 0.0309516 -0.0784513 0.0648147 0.050524 -0.051542 
0.0478111 0.0529657 -0.0567499 0.0616193 0.0618194 -0.0530029 0.139479 -0.0443638 0.0298674 
0.131693 -0.0406847 0.0213831 0.149628 -0.0156449 0.0198633 0.0137181 0.0830234 -0.0818554 
0.0142717 0.0781291 -0.0802023 0.0387246 0.0942238 -0.0848783 -0.00853092 0.0877217 -0.0959261 
0.0850089 0.0477191 -0.042041 0.0659286 0.0399438 -0.0478206 0.0782563 0.0559494 -0.0422541 
0.0570338 -0.0874341 0.0201367 0.0550745 -0.0678152 0.0193778 0.0454461 -0.0805632 0.018271 
0.0642811 -0.0823676 0.025226 0.0467496 -0.0855741 0.0207587 0.0606203 -0.0876059 0.0262076 
0.0611979 0.0501421 -0.0319289 0.0656721 0.0695042 -0.0477239 0.0795632 0.0695069 -0.0377367 
0.0663299 0.0835621 -0.0468347 0.0984018 0.0865284 -0.0639166 0.0817524 0.0521873 -0.0407651 
0.0546615 0.0907484 -0.063122 -0.060183 -0.0658823 -0.0513076 -0.0738223 -0.0583476 -0.0586988 
0.0732756 0.091937 0.0230761 0.0347479 0.0567457 0.0121228 0.0502267 0.0738635 0.0168816 
-0.0928565 -0.0431246 -0.0860568 -0.062256 -0.0362401 -0.050787 0.086282 -0.021259 -0.0135179 
0.0946087 -0.0155193 -0.0107541 0.111628 -0.0145544 0.0160784 -0.100258 -0.0745538 -0.0391354 
0.0211578 -0.0275664 -0.00835788 -0.0652744 -0.064232 -0.0393344 -0.0554736 -0.0816178 -0.0454586 
0.10239 -0.113297 -0.00609251 0.088548 -0.0814925 0.00131882 0.0673033 -0.070837 -0.000905221 
0.0318865 0.157139 -0.0131883 -0.024016 0.0280821 0.0093915 -0.0731498 -0.0133449 -0.0326849 
-0.0763291 -0.0110053 -0.0311174 -0.109159 -0.0294594 -0.0421088 -0.107525 -0.109891 -0.0856393 
-0.0841013 -0.0668057 -0.0520013 0.014064 0.0899314 -0.00769292 0.00824954 0.118233 -0.0208587 
-0.0802813 0.022764 -0.0639018 0.00960216 0.0782174 -0.0715599 -0.00949035 0.0817257 -0.0914316 
-0.0994225 -0.0717113 -0.063521 -0.00973628 -0.150245 -0.0968004 -0.0899983 0.054696 -0.0393822 
-0.0727656 -0.0466641 -0.0033593 -0.0271833 -0.103771 -0.0688933 0.0861312 0.0832296 0.017094 
0.126716 0.104037 0.0239497 0.065812 -0.0836947 -0.00251451 -0.0697454 -0.111401 -0.0745549 
0.0583074 -0.102243 -0.0254844 -0.0915057 -0.0486995 -0.0777986 -0.114076 -0.0536536 -0.0847778 
0.0342067 0.0573583 0.0134012 0.0755947 0.14339 0.000309231 0.0279401 0.0757884 -0.0688893 
0.0156032 0.140706 -0.0316008 -0.0980348 0.0251685 -0.0862659 -0.098883 0.0343805 -0.0867075 
-0.0184514 0.0465866 0.0141582 0.00345065 0.0714377 -0.0103679 -0.0899356 0.00136932 -0.07641 
0.0995978 -0.0297263 0.0274047 -0.0332127 0.0868305 -0.104662 -0.0108618 0.089182 -0.0797177 
-0.012437 -0.136448 0.0116033 -0.00534291 -0.150954 0.00822037 0.020332 -0.108145 0.0126401 