# vtk DataFile Version 5.1
vtk output
ASCII
DATASET UNSTRUCTURED_GRID
POINTS 2395 float
-1.02112 2.70112 -1.77636e-15 -3.07519 1.078 -1.77636e-15 -1.32021 2.46779 -1.77636e-15 
-1.60605 2.2246 -1.77636e-15 -1.88183 1.96583 -1.77636e-15 -2.11674 1.66723 -1.77636e-15 
-2.29832 1.33584 -1.77636e-15 -2.41077 0.972309 -1.77636e-15 -2.46246 0.582294 -1.77636e-15 
-2.47606 0.190345 -1.77636e-15 -2.45476 -0.199253 -1.77636e-15 -2.40834 -0.589277 -1.77636e-15 
-2.36345 -0.980559 0 -2.27648 -1.36203 0 -2.10099 -1.70784 0 
-1.90742 -2.04153 -0.0132009 -1.67587 -2.3521 0 -1.41889 -2.63482 -0.00420608 
-1.1136 -2.86564 0 -0.775814 -3.00827 -0.00276192 -0.385485 -3.02171 -0.003687 
-0.0165552 -2.88576 -0.00250996 0.327491 -2.72641 -0.00678287 0.676871 -2.52057 -0.00362252 
1.01203 -2.3114 0 1.34714 -2.11446 0 1.63975 -1.89076 0 
1.8921 -1.65281 0 2.08167 -1.33366 0 2.2679 -0.99772 0 
2.41438 -0.617172 0 2.51968 -0.251063 -1.77636e-15 2.50474 0.133693 -1.77636e-15 
2.45137 0.506695 -1.77636e-15 2.34044 0.870824 -1.77636e-15 2.17122 1.226 0 
1.97989 1.53081 -1.77636e-15 1.80026 1.84627 -1.77636e-15 1.58868 2.15628 0 
1.32826 2.40111 -1.77636e-15 1.03111 2.61744 -1.77636e-15 0.705951 2.81655 -1.77636e-15 
0.37227 2.99573 -1.77636e-15 0.0177374 3.1241 -1.77636e-15 -0.360161 3.0902 -1.77636e-15 
-0.709403 2.92516 -1.77636e-15 -2.94656 1.4446 -1.77636e-15 -2.7658 1.78017 -1.77636e-15 
-2.54093 2.0846 -1.77636e-15 -2.30035 2.38625 -1.77636e-15 -2.05683 2.67847 -1.77636e-15 
-1.81274 2.96471 -1.77636e-15 -1.52832 3.22508 -1.77636e-15 -1.20201 3.43313 -1.77636e-15 
-0.867575 3.56586 -1.77636e-15 -0.488055 3.6382 -1.77636e-15 -0.108637 3.66287 -1.77636e-15 
0.285386 3.63836 -1.77636e-15 0.662718 3.5644 -1.77636e-15 1.03458 3.43428 -1.77636e-15 
1.39257 3.26371 -1.77636e-15 1.73249 3.09282 -1.77636e-15 2.08002 2.92274 -1.77636e-15 
2.42132 2.74492 -1.77636e-15 2.67731 2.5123 -1.77636e-15 2.85975 2.18661 0 
2.99928 1.8332 -1.77636e-15 3.10376 1.47207 -1.77636e-15 3.15074 1.11822 -0.0183956 
3.14306 0.736054 -1.77636e-15 3.07681 0.374224 -0.02693 3.00694 6.7144e-05 -0.0231728 
2.94718 -0.379081 -0.108627 2.8639 -0.757327 -0.141651 2.74117 -1.12034 -0.0712528 
2.57607 -1.46001 -0.00604503 2.37417 -1.77708 0 2.14128 -2.08513 -0.078499 
1.90262 -2.37054 -0.0306793 1.64391 -2.64706 -0.0206417 1.37195 -2.91537 0 
1.07999 -3.20106 -0.00674904 0.785684 -3.43877 0 0.450207 -3.68229 0 
0.0916528 -3.88604 0 -0.307521 -3.98855 0 -0.667538 -3.8613 0 
-1.00533 -3.70747 0 -1.34978 -3.55744 0 -1.6953 -3.38624 0 
-1.98993 -3.1486 0 -2.26361 -2.8742 0 -2.50005 -2.56258 0 
-2.69763 -2.22725 0 -2.85892 -1.87188 0 -2.98788 -1.50811 0 
-3.10507 -1.14413 0 -3.20949 -0.77758 0 -3.26473 -0.408155 -1.77636e-15 
-3.27015 -0.0421432 -1.77636e-15 -3.23135 0.325901 -1.77636e-15 -3.16869 0.70149 -1.77636e-15 
-1.31627 -2.83616 -1.36615 -1.27012 -2.93191 -1.02411 -1.49502 -2.70727 -1.189 
0.162793 3.26704 -0.753187 0.0835073 3.21878 -0.301674 0.392367 3.10061 -0.410476 
-0.579404 -3.13152 -0.252385 -0.229399 -3.07702 -0.259876 2.25433 1.20981 -0.367957 
2.11778 1.52841 -0.26471 -2.01397 -1.81996 -1.8206 -2.0855 -1.8329 -1.45533 
-2.17713 -1.5352 -1.71598 -1.87908 -2.0765 -1.65609 -2.49687 -0.044758 -0.285681 
-2.48262 -0.463872 -0.314059 0.139625 -2.92269 -0.334783 0.578713 2.96183 -0.223434 
0.872546 2.80282 -0.266673 0.672944 2.96957 -0.534341 -2.59068 0.497584 -0.960687 
-2.54263 0.407849 -0.616335 -2.54598 0.772028 -0.723071 -2.57547 0.161063 -0.891998 
0.48666 -2.68802 -0.296867 0.781367 -2.5041 -0.27014 -0.956476 3.13704 -0.909877 
-0.81016 3.27808 -1.14546 -1.04297 3.14154 -1.2766 -1.52946 -2.69724 -0.905654 
-0.00673879 -3.05944 -0.826059 0.234489 -2.9414 -0.900725 0.129176 -2.98771 -0.628094 
0.362647 -2.83723 -0.56618 1.97171 1.7447 -0.140985 1.84885 2.03329 -0.216809 
-2.4542 1.49509 -0.86549 -2.30898 1.86104 -0.982848 -2.43302 1.62222 -1.25154 
-0.780887 -3.18202 -0.806762 -1.04644 -3.08525 -0.662151 -0.977251 -3.11808 -0.96438 
-2.36841 1.66962 -0.595104 -2.38279 -1.19602 -0.542242 -2.28285 -1.44414 -0.304683 
-2.39323 -1.09492 -0.241977 2.3639 0.854201 -0.541494 2.28734 1.15771 -0.844956 
-2.26141 -1.50644 -0.599176 2.49613 0.101144 -0.424318 2.48244 -0.169842 -0.533596 
-2.44229 -0.776711 -0.203915 -2.11237 1.37961 -3.1242 -2.37726 1.24525 -2.70799 
-2.08755 1.66474 -2.87279 2.23401 1.40777 -1.65075 2.12567 1.73558 -1.6797 
2.13592 1.61282 -1.43233 -2.46404 -0.847142 -0.490591 2.46636 0.380394 -0.328012 
2.42584 -0.504418 -0.514824 0.802895 -2.51443 -0.580167 0.946486 -2.38995 -0.887755 
1.0198 -2.34969 -0.466867 -0.567072 3.18398 -0.284497 0.613988 -2.67742 -0.80843 
0.439275 -2.82588 -1.1987 0.165517 -2.97518 -1.23155 -1.1423 0.139952 -4.96927 
-1.30367 0.211642 -4.77948 -1.1446 0.427227 -4.98707 0.319504 -2.83879 -1.92659 
0.199157 -2.92408 -1.57541 -0.0252025 -2.93228 -1.93795 2.22759 1.57403 -1.92043 
-1.55725 -2.58749 -1.4792 -1.35183 -2.73266 -1.71742 2.32187 1.3252 -1.99441 
2.31635 1.17021 -1.74763 1.47417 1.28181 -5.39809 1.71885 1.05557 -5.44651 
1.4759 1.08719 -5.60204 1.89941 -1.48642 -0.517058 2.11978 -1.14415 -0.503815 
1.61645 0.874392 -5.71981 2.38231 0.728941 -0.93339 2.32274 0.920871 -1.2321 
1.91714 2.11096 -1.03943 2.04086 1.85315 -1.17307 1.94612 2.09473 -1.36292 
-0.799196 3.15569 -0.567709 -1.09646 2.97671 -0.593352 -1.98159 -1.61437 -2.33438 
-1.75815 -1.94568 -2.4238 -1.887 -1.88155 -2.14831 2.03766 1.86369 -0.83403 
2.44296 -0.294712 -0.891851 -1.83437 -1.66588 -2.717 -1.83674 -2.06962 -1.97427 
-0.601937 3.32085 -0.848612 -2.5242 -0.572175 -0.67736 -2.5504 -0.636797 -1.03214 
-2.47327 -0.974655 -0.855292 -0.134122 -3.09899 -0.578736 -2.56677 1.07784 -1.25134 
-2.55578 1.01737 -0.985687 -2.52106 1.3063 -1.07473 -1.27124 -0.0619062 -4.8036 
2.41909 0.629715 -0.336536 -2.59109 1.09626 -1.61633 -2.62588 0.815431 -1.36505 
-2.64051 0.809668 -1.7255 2.32772 -0.639057 -1.11738 2.38623 -0.208171 -1.33947 
0.621603 -2.20997 -3.63548 0.651865 -2.23728 -3.28188 0.384699 -2.27532 -3.47761 
-1.73917 -2.34224 -1.53696 -1.69051 -2.29468 -1.88566 -1.57575 -2.50798 -1.73948 
-0.869504 -2.90295 -2.05773 -0.565465 -2.90702 -2.18723 -0.630274 -3.0326 -1.84534 
-0.261185 -3.1601 -0.936749 -1.89725 -2.12446 -1.33008 -1.72148 -2.43996 -1.16503 
-1.93492 -2.13063 -0.939018 -1.26475 -2.89072 -0.371093 -0.282624 3.33901 -0.559462 
1.47104 -1.87531 -2.34999 1.63061 -1.66033 -2.16265 1.41831 -1.92186 -2.08441 
1.68895 -1.60327 -2.50213 -1.45718 2.59023 -0.382047 -1.17972 2.76693 -0.255408 
-1.33313 2.78128 -0.601512 -1.54818 2.61778 -0.756494 2.29477 -0.845573 -0.529098 
2.36739 -0.665271 -0.798003 -0.341763 -3.00385 -1.97127 -0.49895 -3.20988 -0.748637 
-0.653156 1.62988 -4.83265 -0.734476 1.83663 -4.60752 -0.426672 1.82481 -4.85068 
-0.111092 3.33907 -1.90161 0.129991 3.31336 -1.62264 0.35172 3.24339 -1.94238 
-1.5603 -2.66218 -0.557515 -1.77667 -2.3456 -0.372188 -1.75323 -2.44481 -0.743346 
-1.56157 -2.60391 -0.266333 -1.33544 -2.89728 -0.697537 -0.844127 2.96547 -0.279369 
-2.17392 -1.75444 -0.828709 -2.3185 -1.39291 -0.874162 -2.23441 -1.61986 -1.13541 
2.44094 0.470751 -0.64152 1.16405 2.59089 -3.78747 1.05313 2.79581 -3.39501 
1.39719 2.5294 -3.55486 0.937281 -2.16566 -3.51458 0.846715 2.70547 -3.80054 
0.715907 2.93415 -3.39727 0.588296 3.04422 -3.06048 0.932672 2.95018 -3.05542 
-2.43948 -1.06317 -1.43199 -2.38205 -1.23702 -1.1665 -2.49159 -0.93121 -1.17139 
-1.92467 -2.19022 -0.621574 0.403678 3.22223 -1.5452 -0.429452 -3.171 -0.473038 
-0.716469 -3.18748 -0.518318 2.13928 -0.868835 -2.50075 2.27347 -0.485006 -2.39151 
2.17599 -0.75119 -2.07422 2.41509 0.386954 -1.8042 2.38864 0.576478 -1.35047 
2.39698 0.202982 -1.38394 1.99164 -1.32184 -0.917688 2.22632 -0.96352 -0.864625 
2.28417 -0.383867 -1.9836 -1.71844 2.42436 -0.541116 -2.5397 0.675212 -0.316189 
-2.51109 0.29694 -0.269945 -2.28083 -1.43286 -1.44728 0.67779 3.11843 -2.74918 
-2.0025 -1.99847 -0.359936 -0.928446 3.10919 -2.19926 -1.20385 2.90412 -2.11244 
-1.14109 3.04794 -1.84028 -2.57101 -0.694485 -1.38943 -2.64352 -0.308913 -1.49116 
-2.52688 -0.585901 -1.87844 -2.35505 1.53443 -0.279409 -2.46517 1.3164 -0.494726 
-0.934205 -3.07766 -0.299821 -1.12438 2.92766 -2.42006 2.17744 -1.08817 -3.22662 
1.99241 -1.38296 -3.3075 2.13954 -1.30972 -3.63194 0.745023 3.10674 -1.67471 
1.01223 2.96005 -1.44593 1.06365 2.99204 -1.8169 1.39886 2.74732 -1.57663 
1.80142 -1.4485 -1.95001 1.97414 -1.20147 -1.70519 1.77016 -1.5024 -1.56471 
1.98786 -1.25021 -1.30284 -2.63521 0.532093 -1.27568 -2.58144 0.780209 -1.09029 
-1.64064 0.448043 -4.35837 -1.52508 0.0851504 -4.54989 -1.78899 0.0842528 -4.19514 
-2.15908 -1.73303 -0.464069 -1.37633 0.517766 -4.68219 2.24565 -0.622783 -1.73815 
2.11985 -0.909485 -1.80639 2.00452 -1.11177 -2.14665 1.91426 -1.3667 -2.94379 
-2.18229 -1.26598 -2.22566 -2.35424 -0.843087 -2.23322 -2.1859 -1.02752 -2.55481 
-2.03225 2.0844 -0.420254 -2.22411 1.93342 -0.66561 -2.19457 1.83616 -0.285853 
-1.53369 -0.927441 -4.10174 -1.7076 -0.588345 -4.07713 -1.5049 -0.609253 -4.37256 
-1.73993 -0.886913 -3.77759 -1.42717 -2.5328 -2.08463 -2.07439 -1.97283 -0.636108 
-2.58189 0.496035 -2.38612 -2.54066 0.815586 -2.5872 -2.48376 0.423372 -2.76578 
-2.57484 0.780575 -2.26481 -1.59986 2.4209 -2.5016 -1.69721 2.52403 -1.99 
-1.40594 2.71211 -2.25112 -1.93207 2.22261 -2.2068 -1.25861 2.71137 -2.66455 
-1.36437 2.52771 -2.94552 -2.51938 1.36289 -1.44774 -0.208545 3.39731 -0.960249 
-1.74972 2.51671 -1.54997 -1.94457 2.33849 -1.76982 -1.45325 2.74483 -1.79689 
-2.15416 2.08851 -1.887 -2.06053 2.2313 -1.50097 -2.29514 1.92699 -1.48991 
-1.93381 2.34339 -1.17981 -0.990487 -2.94239 -1.80294 -1.13754 -2.77687 -2.0974 
1.22251 -2.13982 -0.663103 1.45649 -1.92155 -0.808039 1.48598 -1.96287 -0.423781 
1.22961 -2.14529 -1.02486 -0.922606 1.56818 -4.66919 2.47626 0.0881879 -0.795853 
-1.28335 2.87491 -1.01367 -1.03771 -3.05312 -1.2507 -0.216642 3.2477 -0.18714 
1.84162 -1.39939 -2.24538 -1.20042 2.57405 -3.21424 -0.951605 2.72689 -3.40777 
[...]
POINT_DATA 2395
FIELD FieldData 1
Nodal_area 3 2395 float
0 0 0 0 0 0 0 0 0 
0 0 0 0 0 0 0 0 0 
0 0 0 0 0 0 0 0 0 
0 0 0 0 0 0 0 0 0 
0 0 0 0 0 0 0 0 0 
0 0 0 0 0 0 0 0 0 
0 0 0 0 0 0 0 0 0 
0 0 0 0 0 0 0 0 0 
0 0 0 0 0 0 0 0 0 
0 0 0 0 0 0 0 0 0 
0 0 0 0 0 0 0 0 0 
0 0 0 0 0 0 0 0 0 
0 0 0 0 0 0 0 0 0 
0 0 0 0 0 0 0 0 0 
0 0 0 0 0 0 0 0 0 
0 0 0 0 0 0 0 0 0 
0 0 0 0 0 0 0 0 0 
0 0 0 0 0 0 0 0 0 
0 0 0 0 0 0 0 0 0 
0 0 0 0 0 0 0 0 0 
0 0 0 0 0 0 0 0 0 
0 0 0 0 0 0 0 0 0 
0 0 0 0 0 0 0 0 0 
0 0 0 0 0 0 0 0 0 
0 0 0 0 0 0 0 0 0 
0 0 0 0 0 0 0 0 0 
0 0 0 0 0 0 0 0 0 
0 0 0 0 0 0 0 0 0 
0 0 0 0 0 0 0 0 0 
0 0 0 0 0 0 0 0 0 
0 0 0 0 0 0 0 0 0 
0 0 0 0 0 0 0 0 0 
0 0 0 0 0 0 0 0 0 
0 0 0 0 0 0 0 0 0 
-0.0616006 -0.0751533 -0.0140381 -0.0720507 -0.0958675 -0.00882673 -0.0568201 -0.0553612 -0.00791053 
0.0561997 0.158181 0.0224008 0.0202794 0.0726482 0.0128292 0.0351311 0.0698065 0.0116717 
-0.000467933 -0.0390131 0.010505 0.0147433 -0.0451225 0.00969191 0.0754987 0.0230776 0.0054579 
0.0520297 0.0201379 0.0114667 -0.0876151 -0.0499785 -0.0190784 -0.114061 -0.0653345 -0.0196355 
-0.0862303 -0.0434833 -0.0171373 -0.0833391 -0.054535 -0.0146451 -0.0492768 -0.00206219 0.00569773 
-0.0690531 -0.00516959 0.00862884 0.0307264 -0.0574776 0.0125092 0.0152453 0.0271403 0.00529628 
0.0334183 0.0571051 0.0108153 0.0499997 0.0888698 0.01512 -0.0931163 0.00489484 0.0146711 
-0.118304 -0.00162763 0.0110214 -0.132073 0.00621831 0.00931859 -0.104224 0.00189386 0.020044 
0.0214124 -0.0331982 0.00776967 0.0224093 -0.032546 0.00386902 -0.0702213 0.100794 0.0201214 
-0.038411 0.073341 0.00977314 -0.0681793 0.085655 0.00812086 -0.0799503 -0.0742948 -0.00452828 
0.0229424 -0.0529329 0.00255587 0.060777 -0.101192 0.00391486 0.0290245 -0.0554139 0.00660366 
0.0513454 -0.0775158 0.0110552 0.0282594 0.0140501 0.0105674 0.0543986 0.0400462 0.0159 
-0.109708 0.0361672 0.00884842 -0.127681 0.0724441 0.0105217 -0.110628 0.0432735 0.00548679 
-0.0149039 -0.0671583 -0.000290958 -0.0570069 -0.108754 0.00898701 -0.0300965 -0.0693785 -0.00521084 
-0.101149 0.0458978 0.0161271 -0.105585 -0.0346276 0.00568291 -0.0435891 -0.0166743 0.00165621 
-0.0477658 -0.011873 0.00374369 0.0927214 0.0219645 -0.00073854 0.165507 0.0451028 -0.0032812 
-0.0724354 -0.0294427 0.00269071 0.0559417 0.00417592 -0.00294583 0.0577769 -0.00534553 -0.00371787 
-0.0309972 -0.0040097 0.00333685 -0.104756 0.06158 -0.0611984 -0.187629 0.0774284 -0.0703019 
-0.0956205 0.0604603 -0.0463479 0.0761084 0.02401 0.0125657 0.0725916 0.0268463 0.0113237 
0.0874704 0.029687 0.00605319 -0.108398 -0.0187218 0.0110552 0.0289405 0.00439735 -0.00107921 
0.0560916 -0.0140309 -0.00241707 0.0484712 -0.062639 0.00242907 0.102878 -0.114219 0.00296337 
0.0477063 -0.056806 -0.00359618 -0.0244977 0.0581694 0.0212643 0.0827851 -0.110789 0.00864329 
0.068594 -0.108177 -0.00302768 0.0348337 -0.0687252 -0.00493253 -0.0531799 -0.00308054 -0.0444812 
-0.0564921 -0.000404232 -0.0490013 -0.0833211 0.0126891 -0.073624 0.0370091 -0.086747 -0.0205327 
0.0618982 -0.144277 -0.0171176 0.0312213 -0.113516 -0.0265834 0.0721433 0.0254206 0.0116972 
-0.0693759 -0.0635886 -0.0128321 -0.0827387 -0.101533 -0.0290178 0.0905065 0.0253525 0.012836 
0.0692406 0.0170617 0.011618 0.0412069 0.0677863 -0.0571015 0.0549785 0.0645786 -0.0540762 
0.0297001 0.0502017 -0.0483005 0.0595168 -0.0450191 -0.0057812 0.063556 -0.0400468 -0.00145231 
0.0470034 0.0666796 -0.0674542 0.139865 0.0269623 -0.00606499 0.126582 0.0293119 0.00102306 
0.0951704 0.057871 0.0067427 0.0893906 0.0361307 0.00233891 0.0755058 0.0371158 0.00797976 
-0.0516719 0.0843751 0.0286979 -0.0713328 0.0987614 0.0310836 -0.0971686 -0.0528947 -0.0304213 
-0.0784219 -0.0514334 -0.028944 -0.0791364 -0.0470073 -0.0252452 0.116104 0.0549431 0.00100986 
0.149694 -0.0229453 -0.0174284 -0.132346 -0.0824357 -0.058659 -0.0605432 -0.0392726 -0.0152058 
-0.0421468 0.125806 0.0218277 -0.118857 -0.0148942 0.0152714 -0.109223 -0.0218408 0.0115823 
-0.138655 -0.0375558 0.00789067 0.036684 -0.101 0.0122202 -0.0850516 0.0142144 0.00677587 
-0.066571 0.00617535 0.0049088 -0.0908734 0.0206138 0.00478166 -0.0732226 -0.00869011 -0.064152 
0.0297399 0.00598554 -0.000989143 -0.0980467 0.0204484 0.00202994 -0.091405 0.0111983 0.00821264 
-0.0932043 0.0118205 -0.00298164 0.144252 -0.0469805 -0.0206672 0.136065 -0.017425 -0.0193039 
0.000588842 -0.113314 -0.000158706 0.0213552 -0.0906446 -0.0185812 0.00313374 -0.0934401 -0.0266547 
-0.0802286 -0.0541443 -0.0136536 -0.0799602 -0.0593761 -0.0220202 -0.0564561 -0.048863 -0.0160135 
-0.0211954 -0.0723433 -0.0293677 -0.00985718 -0.101363 -0.0471195 -0.0134269 -0.106905 -0.0313299 
0.0209764 -0.0960249 -0.00236624 -0.0931346 -0.0615631 -0.0119571 -0.11731 -0.0844392 -0.0125641 
-0.116626 -0.0750514 -0.0102786 -0.0471845 -0.062201 0.0122832 0.00181992 0.15057 0.0297784 
0.0580965 -0.0541526 -0.00268763 0.0799974 -0.0632569 -0.000656938 0.0861422 -0.0803733 -0.00272465 
0.0906394 -0.0737509 -0.000156697 -0.0403611 0.0459412 0.0167241 -0.0321332 0.0447799 0.0197227 
-0.0599055 0.0696643 0.0182827 -0.0782409 0.092436 0.017983 0.0482812 -0.0232498 -0.000405324 
0.0865739 -0.0293683 -0.00739133 0.00795374 -0.0820108 -0.0265628 0.00883041 -0.0937477 0.00131955 
-0.0438353 0.0466229 -0.0589519 -0.0525016 0.0561174 -0.0675295 -0.0499872 0.0704422 -0.0844219 
0.0194678 0.14752 -0.0162764 0.0264595 0.0985822 -0.00427436 0.0417223 0.166524 -0.00370046 
-0.0821441 -0.0758651 0.0103284 -0.0585639 -0.04294 0.00892967 -0.0984267 -0.0728907 -0.000402668 
-0.0264655 -0.0248439 0.00485621 -0.0582511 -0.0704591 0.00421552 -0.0300972 0.0463229 0.0242096 
-0.110211 -0.0534703 -2.52687e-05 -0.109707 -0.0421953 0.00298809 -0.104814 -0.0473028 -0.00619325 
0.137032 0.0212733 -0.00670364 0.0467265 0.0890977 -0.0410731 0.05768 0.122335 -0.0458645 
0.0670095 0.10441 -0.0430952 0.02635 -0.11981 0.00679934 0.0400957 0.124138 -0.0637683 
0.0366195 0.13842 -0.0490622 0.0203341 0.0989334 -0.0272709 0.0512969 0.131338 -0.0348597 
-0.0879886 -0.0340762 -0.00479889 -0.103911 -0.0397609 -0.00217629 -0.0772545 -0.0234031 0.0016344 
-0.0644612 -0.0437104 0.00413599 0.0400341 0.10646 0.00468257 0.0110317 -0.0658365 0.0109391 
-0.0144836 -0.0834723 0.0116785 0.143146 -0.0668621 0.0130658 0.124582 -0.0399862 0.0103226 
0.124041 -0.0474034 -0.0011286 0.187223 -0.0073347 0.0135767 0.147864 0.0151244 0.000167928 
0.121704 -0.00232342 -0.00750338 0.122982 -0.0896043 -0.0116832 0.104981 -0.0572195 -0.00934821 
0.123771 -0.0307969 0.000144471 -0.0540677 0.0635697 0.0203526 -0.0655694 -3.71786e-05 0.00247408 
-0.0577283 -0.00248609 0.00506993 -0.102134 -0.0467107 -0.0126667 0.0296116 0.115803 -0.0217326 
-0.0364624 -0.0223654 0.00719048 -0.0673916 0.102184 -0.0217889 -0.0605138 0.0695746 -0.0147704 
-0.0715489 0.0851587 -0.0148302 -0.132876 -0.0338628 -0.00484108 -0.123288 -0.0206627 -0.00701574 
-0.18147 -0.0492983 -0.0361844 -0.0462373 0.0184366 0.00978564 -0.093438 0.0256874 0.0122567 
-0.0205642 -0.0505057 0.0107842 -0.0662418 0.0769271 -0.0170416 0.145214 -0.0775221 0.0333149 
0.0844652 -0.0649168 0.023969 0.0888098 -0.0571492 0.0250154 0.0536141 0.143072 0.0141878 
0.0707282 0.135478 0.0243862 0.0733553 0.14407 0.0155265 0.0813364 0.12405 0.0222093 
0.100075 -0.0686884 -0.0023905 0.117526 -0.072741 -0.00955217 0.108272 -0.0813306 -0.00559143 
0.114056 -0.0785994 -0.0137875 -0.0811605 0.00846067 0.00969822 -0.0825596 0.00762902 0.0104072 
-0.102152 0.0164455 -0.0793478 -0.12335 -0.00521155 -0.101768 -0.11141 -0.00612399 -0.0798985 
-0.0525095 -0.022922 0.00458502 -0.108028 0.0213426 -0.0885075 0.0987763 -0.0301048 -0.0108113 
0.0839895 -0.0398217 -0.00754972 0.141407 -0.0763258 -0.000630726 0.10691 -0.0802706 0.0223339 
-0.126203 -0.0544873 -0.0354071 -0.124145 -0.0456298 -0.0327169 -0.133639 -0.0547914 -0.0432654 
-0.0450981 0.0409926 0.0118161 -0.0696527 0.0507812 0.0135259 -0.0448175 0.0288738 0.011779 
-0.0918329 -0.052144 -0.0602412 -0.0990863 -0.0397365 -0.0615096 -0.0898242 -0.0369296 -0.0688207 
-0.135873 -0.070204 -0.0734357 -0.101029 -0.100309 -0.0419429 -0.0631245 -0.0356474 0.00179705 
-0.117411 -0.002581 -0.022439 -0.135965 0.0186454 -0.0350495 -0.153921 -0.00632923 -0.0453919 
-0.08312 0.00845841 -0.0109392 -0.151766 0.145527 -0.0590674 -0.105695 0.117486 -0.0281775 
-0.0952643 0.103946 -0.0279979 -0.118827 0.114541 -0.045951 -0.0936977 0.0927135 -0.0294468 
-0.102069 0.0887487 -0.0390458 -0.107857 0.0283845 0.00329508 0.0160932 0.167237 0.0156856 
-0.104561 0.118171 -0.00356365 -0.0722547 0.0739151 -0.0121049 -0.107544 0.121837 -0.0168194 
-0.112289 0.0893304 -0.0204062 -0.0891568 0.0812714 -0.000957618 -0.136307 0.084816 -0.000745178 
-0.0858821 0.0892164 0.00723701 -0.0436775 -0.097296 -0.0288301 -0.0593913 -0.0958863 -0.0390546 
0.0806234 -0.0908202 -0.00809577 0.0704969 -0.0791318 -0.00749717 0.0469847 -0.0529426 -0.00766591 
0.096584 -0.0995746 -0.00178084 -0.0788 0.0556441 -0.079083 0.118269 0.00333697 -0.0101892 
-0.125766 0.147873 0.0213076 -0.04506 -0.0940155 -0.0150266 -0.00189806 0.0405597 0.0102834 
0.0748204 -0.0512449 0.001082 -0.0621006 0.0541272 -0.0296545 -0.0560354 0.0749029 -0.0390206 
-0.0743505 0.0648721 -0.0473659 -0.0249578 -0.147993 -0.0323401 -0.0123262 -0.128683 -0.015004 
-0.0857318 0.101122 -0.0403298 -0.0554258 0.0421735 -0.0316377 -0.0698261 0.0488122 -0.042093 
-0.0545252 0.038072 -0.0339757 0.0369547 -0.0525627 0.00723976 -0.108505 -0.0417404 -0.0289468 
-0.122234 0.104824 -0.0563789 -0.119569 0.0978486 -0.0555919 -0.149355 0.0359259 -0.0275284 
-0.0714169 0.00956138 -0.00856994 -0.0716296 0.0132121 -0.00517431 -0.145588 0.0455003 -0.0110918 
-0.08449 0.0554674 -0.0531121 0.0923111 -0.0878989 -0.00238429 0.115614 -0.125937 -0.00554036 
-0.133001 0.0722423 -0.020729 -0.115568 0.0845806 -0.0438161 -0.0944072 0.0378705 -0.0010403 
0.0139561 -0.115633 -0.0174817 0.0246692 -0.148257 -0.0305269 0.0256275 -0.075277 -0.0119905 
0.121946 0.0112212 -0.010232 0.0435483 0.0698957 0.0148196 0.086529 0.035305 0.0128676 
0.119571 0.0468747 0.018404 0.0543301 0.0210131 0.00482774 0.0900148 -0.116407 -0.00854238 
0.0682726 -0.0820214 0.00100887 0.0288101 -0.0740227 -0.00393818 -0.118273 -0.00384377 0.0158244 
-0.0915276 0.00351726 0.00375451 -0.0763527 -0.0061887 -0.00154063 -0.129454 0.0575983 -0.0780358 
-0.111676 0.0404623 -0.0731256 -0.133028 0.0258663 -0.0732677 -0.101094 0.0186692 -0.0645128 
-0.0659631 0.00284168 0.0127497 -0.122836 0.0770239 -0.0760043 0.0634906 0.109716 0.0202841 
0.0785792 0.0487887 0.0134063 -0.135203 -0.0040413 -0.0681457 -0.135733 -0.00485519 -0.0559903 
-0.154939 -0.0276858 -0.0503265 -0.154668 -0.0200519 -0.0374652 0.139475 0.0486125 0.00553493 
0.104896 0.0548825 0.0185337 -0.13043 -0.0390019 -0.0444046 -0.123236 -0.0310051 -0.0359187 
-0.149809 -0.0549452 -0.0591296 -0.100485 -0.0372384 -0.0359596 -0.124149 -0.054132 -0.0487192 
-0.118894 -0.101262 -0.069228 -0.118209 -0.0954306 -0.0714075 -0.0888806 -0.109034 -0.0760713 
-0.0572193 0.068473 -0.0707811 -0.0626296 0.0526708 -0.0591422 -0.0461271 0.080441 -0.080724 
-0.0737273 0.0421796 -0.0567931 -0.054825 0.0371143 -0.0376048 0.0522733 0.057119 0.0148236 
-0.0899639 -0.0134756 0.00840411 -0.131801 -0.00681738 0.0237295 -0.091918 0.106368 0.0116409 
-0.0460153 0.0460418 0.0125277 -0.0714864 0.0773109 0.0142008 -0.0907481 0.0804151 0.0157856 
-0.0921052 0.0542667 -0.062048 -0.0442813 -0.0463568 -0.0284664 -0.0444094 -0.037592 -0.0346658 
-0.0461715 -0.0357939 -0.0284542 -0.145147 -0.0853446 -0.070677 -0.128748 -0.0629352 -0.059621 
-0.126697 -0.0816862 -0.0720882 -0.0781054 -0.0907061 -0.0691352 -0.0686034 -0.0550429 -0.0626355 
-0.0525673 -0.0478064 -0.0492381 -0.0745417 -0.0432652 -0.0693184 -0.0727899 -0.0534023 -0.063871 
-0.0359038 0.087498 -0.0999627 -0.0278422 0.0877661 -0.0836337 -0.0643825 -0.102598 -0.060286 
-0.0872051 -0.100469 -0.0801731 -0.0731023 0.0345185 -0.0546569 -0.0538884 0.0314299 -0.0380992 
-0.0714551 0.0396049 -0.0538123 0.0202598 0.153161 -0.00528637 -0.0240465 0.134891 0.00596821 
-0.110126 0.0193987 -0.0394303 -0.0587391 0.0464658 -0.0323841 -0.0615357 0.0422668 -0.0389898 
-0.0224554 0.0632718 -0.0343403 -0.0410593 0.0962311 -0.0432293 -0.0462069 0.0773955 -0.0565611 
-0.0799159 0.0540596 -0.0497567 -0.0856552 0.0571322 -0.0523052 -0.0649218 0.0694885 -0.059046 
-0.0372073 -0.0845232 -0.0234209 -0.0365228 -0.0911326 -0.00721636 -0.015704 -0.0647754 -0.0191061 
-0.0496998 -0.0903544 -0.00980749 -0.0174274 -0.108954 -0.0257735 -0.0132838 -0.0721226 -0.0267955 
0.141437 0.0475753 -0.00232479 0.0533393 0.151967 0.00724614 0.0775995 0.165677 0.0228618 
-0.080516 -0.0359284 -0.0156734 -0.0831372 -0.0278819 -0.0148603 -0.00782584 -0.110976 -0.0482131 
-0.0270333 -0.0988996 0.00346629 -0.0877313 -0.0257432 -0.0229794 -0.120091 -0.0251136 -0.0274872 
-0.107988 -0.0357531 -0.0328706 -0.0832901 -0.00363075 0.0138284 -0.110506 0.00758103 0.000625592 
-0.12486 0.0054334 -0.0153101 -0.113822 -0.0180889 -0.0177355 0.089298 -0.079546 -0.00202658 
0.0791038 -0.0764782 -0.00820522 0.135914 0.0450292 0.0134601 0.120611 0.0282866 0.00925667 
-0.106337 -0.000978707 0.014587 -0.0731413 0.0531343 -0.0423551 -0.125953 -0.00420213 -0.0149029 
-0.0435079 0.0591081 -0.0517822 -0.0404315 0.08897 -0.0645647 -0.0325496 -0.0651315 -0.0405011 
-0.0506439 -0.129122 -0.0918742 -0.0179569 -0.0847623 -0.0499749 -0.0677814 -0.0302142 -0.0171256 
-0.0865372 -0.044154 -0.0228168 -0.0851662 -0.0081306 -0.0164782 0.0487146 0.0927406 0.0133132 
0.0419992 0.0773225 0.0125252 -0.0415492 0.103412 -0.0850693 -0.0410372 -0.0719227 -0.0174011 
-0.0825283 0.0931989 0.000932921 -0.0751605 0.0869635 0.00192803 0.105857 -0.0873027 -0.0114143 
-0.0251031 0.00698886 0.00380977 -0.068877 0.00810118 0.00460277 -0.0981348 0.0150469 0.00760579 
0.0657105 -0.0586336 -0.00734536 0.0579276 -0.0447756 -0.0073043 -0.0654793 -0.0854025 -0.0581683 
-0.0060446 0.110525 -0.0205666 -0.0313141 0.0870649 -0.017213 -0.0213446 0.158565 -0.0161482 
-0.0783174 -0.0367728 -0.0255817 0.0224587 -0.0194924 -2.21506e-05 -0.0196043 0.090736 -0.060844 
-0.0159363 0.0199157 0.0088709 0.0492536 -0.0439108 -0.00702 -0.0841403 -0.0958684 -0.07013 
-0.0786426 0.0419585 -0.0736054 -0.0443261 0.0204672 -0.0400802 -0.0693126 0.0387722 -0.0580355 
0.132046 -0.0622848 -0.017206 0.0886759 -0.0485578 -0.0117352 -0.0631119 0.0296354 -0.0502302 
-0.0680718 -0.0885971 -0.0145515 -0.0886363 -0.0864858 -0.0347462 -0.0585702 -0.0711585 -0.023903 
0.0105584 0.0880043 -0.0646393 0.0114294 0.0843192 -0.0533303 0.0245206 0.0833637 -0.0538294 
-0.0497177 0.0924783 -0.0128694 -0.0447603 0.0922516 -0.00249752 -0.04213 0.0573326 -0.00238344 
-0.0262824 -0.11001 -0.0609158 -0.0229593 -0.0667534 -0.0424311 -0.0357109 -0.0884789 -0.0540737 
-0.0570163 -0.0967865 -0.069514 -0.0853559 -0.0403591 -0.0331563 0.0903577 -0.0386475 0.0166804 
0.0862492 -0.0502976 0.0170793 0.102843 -0.00423392 0.0140831 0.0992965 -0.0177546 0.013293 
0.158351 -0.029901 0.0284611 0.128616 -0.0334347 0.0145568 -0.137035 0.0632897 -0.0395799 
0.136764 0.0197716 0.0132891 0.100274 0.00703917 0.0133545 0.105684 0.0198862 0.0132979 
0.0146981 0.0596272 -0.0350221 -0.0822592 -0.0740395 -0.0420716 -0.0474054 -0.0717917 -0.02153 
-0.0466241 -0.092232 -0.0398181 -0.0873565 -0.118884 -0.0558355 -0.0405639 -0.107611 -0.0513504 
-0.0933602 -0.115835 -0.0313294 -0.0965791 -0.0914612 -0.0469257 0.0471555 -0.122206 -0.0463243 
0.0513732 -0.0911723 -0.0234427 0.0354142 -0.101709 -0.037716 0.0288625 -0.120057 -0.0528978 
0.0442756 -0.113258 -0.0379565 0.0513804 0.153865 0.000962485 0.0214541 -0.0870793 -0.028973 
0.0233388 -0.0676027 -0.0158731 0.0328649 -0.081526 -0.0118808 0.0432958 -0.0797461 0.00340259 
0.0367985 -0.0565395 -0.00440929 0.0821608 -0.0961577 0.00783813 0.130458 0.0969544 -0.00888051 
0.0972496 0.107978 -0.0157739 0.11268 0.114943 0.00388567 0.107967 0.0943654 -0.0231381 
0.0567441 0.105308 0.0217432 0.0858607 0.129087 0.012151 0.122064 0.122163 0.0226811 
-0.0443588 -0.0655383 -0.00873969 0.0606508 -0.0722368 -0.0124702 0.0818665 -0.101714 -0.00997575 
0.037299 0.0548487 -0.0129004 0.0323207 0.0657117 -0.015829 0.0465636 0.0776661 -0.00831613 
0.0422388 0.0994352 -0.0150864 0.0628277 0.0730205 -0.0193253 -0.0599046 0.0454507 -0.0877644 
-0.067996 0.0604994 -0.0964976 -0.0545082 0.0748668 -0.103545 -0.0685599 0.0939384 -0.119468 
0.0117393 -0.10738 -0.0439364 0.172283 0.0807755 0.00444942 0.158999 0.0244841 0.0174126 
0.117679 0.0323022 0.0094944 0.0320162 0.0230024 -0.0617584 0.0411216 0.0255187 -0.096647 
0.0188424 0.0344001 -0.117849 -0.0770904 0.0617249 0.00645909 0.161479 0.0386227 0.00953085 
0.0896603 -0.0741486 -0.00172099 0.133811 0.0350082 0.00657169 0.146997 0.0506644 -0.00511529 
0.110076 0.0398047 -0.00480665 0.0142337 0.146481 -0.073603 -0.00190109 0.140273 -0.0886542 
-0.012096 0.152274 -0.076301 -0.10417 -0.0177933 -0.0888987 -0.101708 -0.0370635 -0.083232 
-0.0978019 -0.0213995 -0.0841973 -0.133362 -0.0359024 -0.103632 0.123664 -0.0474245 0.0351312 
0.0991463 -0.0403756 0.0258902 0.155398 -0.0377613 0.0265045 0.0879205 -0.00835827 0.0129863 
0.128414 0.0039609 0.00508896 0.0912364 -0.00163265 -0.0123735 0.147386 -0.0509856 0.0300097 
0.142025 -0.0517687 0.0264948 0.132278 -0.0499353 0.0295474 0.0103805 0.179428 -0.0617753 
0.120732 0.0536562 -0.0110005 0.137069 0.057539 -0.0168025 0.14514 0.0974587 -0.0253141 
0.108838 0.0528434 -0.00876232 -0.110079 0.0343958 -0.0805716 0.0653818 0.0509671 -0.0523148 
0.0482278 0.0535489 -0.0577482 0.0621998 0.0621842 -0.0537908 0.140903 -0.0454755 0.0293615 
0.13184 -0.0419209 0.0219864 0.151377 -0.0163235 0.0193895 0.0125606 0.0843733 -0.0832907 
0.0131593 0.0802905 -0.0814815 0.0381489 0.09574 -0.0866932 -0.00979216 0.0893687 -0.0975318 
0.0863531 0.0486439 -0.0436525 0.0663906 0.0402495 -0.0486382 0.0796471 0.0571705 -0.0437823 
0.0592969 -0.089533 0.0208521 0.0572149 -0.0698136 0.019638 0.0467905 -0.0822007 0.0185856 
0.0658038 -0.0846924 0.0253491 0.0472268 -0.0893951 0.0209359 0.0632155 -0.0909303 0.0263572 
0.0626036 0.050853 -0.0332315 0.0662642 0.0717049 -0.0499979 0.0807096 0.0705335 -0.0398402 
0.0667019 0.0857095 -0.0491389 0.100054 0.0873726 -0.0660107 0.0836417 0.0531743 -0.0425682 
0.055006 0.0921841 -0.0647916 -0.0614805 -0.0672877 -0.0519686 -0.0756043 -0.0601564 -0.0598545 
0.0734696 0.0936531 0.0209239 0.0351076 0.0585274 0.0115593 0.0501796 0.0748555 0.0153544 
-0.0952443 -0.044738 -0.087233 -0.0631162 -0.0372063 -0.0512935 0.0887951 -0.022701 -0.0126549 
0.096479 -0.0169016 -0.00980486 0.113253 -0.0151052 0.0151984 -0.101399 -0.0764678 -0.0382628 
0.0234357 -0.0276616 -0.00522663 -0.0659222 -0.0651848 -0.038177 -0.0557887 -0.082605 -0.0444136 
0.105233 -0.118584 -0.00644197 0.091657 -0.0857131 0.00126796 0.0702333 -0.0755573 -0.000926035 
0.0304432 0.159878 -0.0153259 -0.0250871 0.0292429 0.00965573 -0.0752345 -0.013466 -0.0334615 
-0.0782023 -0.0111071 -0.0317434 -0.11121 -0.0297663 -0.0426955 -0.108679 -0.111588 -0.0856506 
-0.0861097 -0.0682797 -0.0524292 0.0149113 0.0910618 -0.0091564 0.0089204 0.119439 -0.0224833 
-0.0819696 0.0253568 -0.0649715 0.00837807 0.0795867 -0.0725873 -0.0108245 0.084777 -0.092983 
-0.100896 -0.0729143 -0.0642302 -0.0135522 -0.153607 -0.0952339 -0.092461 0.0570778 -0.0404621 
-0.0747856 -0.0472279 -0.00563479 -0.0283141 -0.105369 -0.0675959 0.0873407 0.0836629 0.0152559 
0.130851 0.104494 0.0221101 0.066431 -0.0883808 -0.00424222 -0.072332 -0.114471 -0.0756437 
0.0577949 -0.10603 -0.0262302 -0.092187 -0.0505109 -0.0790594 -0.114055 -0.0547791 -0.086363 
0.0336312 0.0580933 0.0117435 0.0730919 0.147005 -0.000228327 0.0270084 0.0776097 -0.0702395 
0.0149952 0.142031 -0.0326572 -0.0971713 0.0283374 -0.0892921 -0.0992491 0.0373085 -0.0892245 
-0.0174237 0.0485197 0.0128491 0.00421058 0.0725352 -0.0115346 -0.0904105 0.00325653 -0.0784226 
0.101805 -0.0308911 0.0261897 -0.0351052 0.0899999 -0.107004 -0.012093 0.0909997 -0.0814039 
-0.0109724 -0.138014 0.0123527 -0.00563836 -0.153812 0.00836243 0.0215554 -0.109619 0.0144023 