# vtk DataFile Version 5.1
vtk output
ASCII
DATASET UNSTRUCTURED_GRID
POINTS 2395 float
-1.02155 2.75666 -1.77636e-15 -3.12266 1.12441 -1.77636e-15 -1.32873 2.52228 -1.77636e-15 
-1.62066 2.27421 -1.77636e-15 -1.90262 2.00909 -1.77636e-15 -2.14431 1.70634 -1.77636e-15 
-2.33263 1.37229 -1.77636e-15 -2.4601 1.00781 -1.77636e-15 -2.5235 0.619781 -1.77636e-15 
-2.55545 0.226624 -1.77636e-15 -2.54164 -0.167587 -1.77636e-15 -2.49964 -0.56123 -1.77636e-15 
-2.45663 -0.956969 0 -2.37009 -1.34166 0 -2.19349 -1.68995 0 
-1.99649 -2.02492 0 -1.76359 -2.33671 0 -1.50153 -2.61899 0 
-1.19369 -2.8507 0 -0.847018 -2.99576 0 -0.458884 -3.01513 0 
-0.086799 -2.90065 0 0.263945 -2.75157 0 0.616483 -2.56692 0 
0.955436 -2.36482 0 1.28519 -2.15713 0 1.58456 -1.92907 0 
1.85037 -1.68037 0 2.05483 -1.35387 0 2.25379 -1.01532 0 
2.41428 -0.640368 0 2.52617 -0.271212 -1.77636e-15 2.51853 0.117185 -1.77636e-15 
2.47242 0.498085 -1.77636e-15 2.37268 0.872782 -1.77636e-15 2.2152 1.23537 -0.00935171 
2.03186 1.55918 -1.77636e-15 1.85689 1.88809 -1.77636e-15 1.64656 2.20272 0 
1.38051 2.45115 -1.77636e-15 1.07576 2.66509 -1.77636e-15 0.742027 2.85569 -1.77636e-15 
0.402258 3.03228 -1.77636e-15 0.0407704 3.15946 -1.77636e-15 -0.34386 3.13064 -1.77636e-15 
-0.70096 2.97463 -1.77636e-15 -2.97723 1.48381 -1.77636e-15 -2.7851 1.81524 -1.77636e-15 
-2.55746 2.12069 -1.77636e-15 -2.31207 2.42233 -1.77636e-15 -2.06597 2.71755 -1.77636e-15 
-1.81784 3.00679 -1.77636e-15 -1.5298 3.26758 -1.77636e-15 -1.19744 3.47555 -1.77636e-15 
-0.853928 3.6039 -1.77636e-15 -0.469954 3.66852 -1.77636e-15 -0.0852509 3.68681 -1.77636e-15 
0.310616 3.66281 -1.77636e-15 0.690257 3.59072 -1.77636e-15 1.06565 3.46812 -1.77636e-15 
1.42473 3.30546 -1.77636e-15 1.76728 3.13971 -1.77636e-15 2.11303 2.97304 -1.77636e-15 
2.45094 2.79289 -1.77636e-15 2.70952 2.54852 -1.77636e-15 2.89001 2.21626 0 
3.02691 1.85786 -1.77636e-15 3.12934 1.49115 -1.77636e-15 3.17664 1.12628 -0.0116712 
3.16358 0.740717 -1.77636e-15 3.09515 0.370562 -0.000527771 3.01933 -0.00823117 -0.00208216 
2.95408 -0.390492 -0.0738976 2.86511 -0.77031 -0.106918 2.73384 -1.13577 -0.0548143 
2.55509 -1.47876 0 2.34101 -1.79952 0 2.09959 -2.113 -0.0594266 
1.85186 -2.40522 -0.0198988 1.5846 -2.6852 -0.0121298 1.30629 -2.9542 0 
1.01264 -3.23152 0 0.71337 -3.46741 0 0.380891 -3.69111 0 
0.0287852 -3.87601 0 -0.359965 -3.96771 0 -0.715421 -3.83517 0 
-1.05934 -3.68209 0 -1.40856 -3.53331 0 -1.75415 -3.36335 0 
-2.05544 -3.12919 0 -2.33128 -2.85782 0 -2.56942 -2.54912 0 
-2.76792 -2.21469 0 -2.92987 -1.85887 0 -3.0582 -1.49272 0 
-3.17383 -1.12278 0 -3.27686 -0.750261 0 -3.33117 -0.37313 -1.77636e-15 
-3.33603 0.00164413 -1.77636e-15 -3.29646 0.375758 -1.77636e-15 -3.22704 0.751676 -1.77636e-15 
-1.35504 -2.81212 -1.38275 -1.314 -2.90876 -1.03436 -1.5338 -2.68323 -1.20561 
0.201848 3.28807 -0.79172 0.118227 3.2469 -0.335898 0.431392 3.12694 -0.446662 
-0.644316 -3.11802 -0.249501 -0.292826 -3.07128 -0.258378 2.30114 1.20973 -0.380221 
2.17002 1.54107 -0.289066 -2.05001 -1.79766 -1.86189 -2.12737 -1.80898 -1.48412 
-2.21983 -1.50993 -1.75791 -1.92095 -2.05258 -1.68488 -2.59079 -0.00973574 -0.279153 
-2.57501 -0.433145 -0.310061 0.079759 -2.93271 -0.333737 0.622793 2.99326 -0.260982 
0.921836 2.84047 -0.307446 0.722752 2.99596 -0.575287 -2.66627 0.536128 -0.981437 
-2.62853 0.447201 -0.624199 -2.62153 0.813246 -0.737768 -2.66042 0.197838 -0.904821 
0.429726 -2.72228 -0.288729 0.727641 -2.54795 -0.25719 -0.931507 3.17025 -0.95031 
-0.777887 3.30088 -1.19107 -1.01535 3.16864 -1.32172 -1.57954 -2.67464 -0.914475 
-0.0572126 -3.05786 -0.832904 0.192281 -2.94325 -0.912807 0.0787026 -2.98613 -0.634939 
0.312787 -2.84969 -0.570119 2.02783 1.76914 -0.175497 1.90902 2.06779 -0.261849 
-2.50093 1.53824 -0.888714 -2.33666 1.90632 -1.00647 -2.47188 1.66464 -1.27669 
-0.83411 -3.16271 -0.810823 -1.09974 -3.06416 -0.665938 -1.02112 -3.09493 -0.974636 
-2.40187 1.7139 -0.617926 -2.4654 -1.17122 -0.543887 -2.37014 -1.42358 -0.296418 
-2.48353 -1.07038 -0.233008 2.40291 0.838554 -0.538176 2.33889 1.14515 -0.857302 
-2.34299 -1.48444 -0.597716 2.5161 0.0779506 -0.401837 2.50022 -0.194504 -0.511292 
-2.53376 -0.748913 -0.196514 -2.13923 1.40649 -3.16257 -2.40879 1.27734 -2.74693 
-2.10821 1.69667 -2.90442 2.29233 1.38733 -1.66744 2.18981 1.72511 -1.70883 
2.19633 1.59915 -1.45489 -2.55238 -0.820716 -0.487171 2.49119 0.359134 -0.308546 
2.43413 -0.514413 -0.481186 0.756904 -2.55314 -0.572175 0.911607 -2.43283 -0.878635 
0.975414 -2.39548 -0.45316 -0.545697 3.21982 -0.318793 0.566141 -2.7045 -0.807085 
0.404415 -2.83191 -1.21511 0.123309 -2.97703 -1.24363 -1.16625 0.132392 -5.0573 
-1.32762 0.204083 -4.86751 -1.16558 0.418297 -5.06454 0.294146 -2.83217 -1.95632 
0.16977 -2.92434 -1.59879 -0.0505607 -2.92566 -1.96768 2.28917 1.55694 -1.94283 
-1.59603 -2.56344 -1.49581 -1.38272 -2.70983 -1.74388 2.38345 1.30811 -2.01681 
2.37467 1.14977 -1.76431 1.49501 1.29768 -5.4509 1.74436 1.07151 -5.49815 
1.4949 1.10264 -5.65966 1.87658 -1.50243 -0.502262 2.11154 -1.15581 -0.47899 
1.63545 0.88985 -5.77743 2.42308 0.705364 -0.928734 2.37192 0.897953 -1.23718 
1.98463 2.12532 -1.08562 2.10492 1.85694 -1.20846 2.01349 2.1006 -1.40437 
-0.776818 3.19198 -0.605555 -1.07875 3.01849 -0.631063 -2.01741 -1.59742 -2.38577 
-1.79454 -1.93403 -2.46822 -1.92304 -1.85925 -2.1896 2.10182 1.8751 -0.873451 
2.46197 -0.320074 -0.873915 -1.87075 -1.65424 -2.76142 -1.86939 -2.05048 -2.01176 
-0.570066 3.34478 -0.889539 -2.60995 -0.541133 -0.685382 -2.62732 -0.607377 -1.04906 
-2.54873 -0.948505 -0.867625 -0.191814 -3.09513 -0.580896 -2.6248 1.1191 -1.27709 
-2.61648 1.05985 -1.00664 -2.5705 1.3485 -1.09971 -1.29519 -0.0694658 -4.89164 
2.4491 0.611619 -0.322693 -2.63516 1.13666 -1.64454 -2.68173 0.854734 -1.39711 
-2.68309 0.846227 -1.76611 2.34751 -0.664791 -1.10509 2.41514 -0.234699 -1.32729 
0.633204 -2.22822 -3.69122 0.652734 -2.26156 -3.33042 0.36751 -2.28854 -3.52513 
-1.77399 -2.31897 -1.56516 -1.72533 -2.27141 -1.91386 -1.60664 -2.48514 -1.76595 
-0.898372 -2.88045 -2.08288 -0.592461 -2.88827 -2.21487 -0.659641 -3.01106 -1.86923 
-0.309793 -3.1481 -0.94532 -1.94901 -2.10141 -1.3473 -1.76501 -2.41644 -1.1832 
-1.99824 -2.10934 -0.946282 -1.33526 -2.87284 -0.364435 -0.248267 3.36105 -0.597983 
1.47267 -1.91127 -2.37331 1.64152 -1.69316 -2.17682 1.41608 -1.96167 -2.09612 
1.70404 -1.63283 -2.52611 -1.46074 2.64517 -0.412625 -1.17737 2.82102 -0.287726 
-1.32364 2.83053 -0.636409 -1.54783 2.67019 -0.788081 2.29258 -0.856101 -0.500749 
2.37835 -0.672147 -0.768309 -0.368759 -2.9851 -1.99891 -0.54985 -3.1922 -0.754697 
-0.654423 1.62836 -4.88109 -0.735743 1.83511 -4.65595 -0.411281 1.8264 -4.89685 
-0.071796 3.3486 -1.94751 0.169288 3.32289 -1.66853 0.39174 3.24734 -1.9861 
-1.62181 -2.64153 -0.559053 -1.85463 -2.32768 -0.365489 -1.80824 -2.42282 -0.752523 
-1.63519 -2.58558 -0.260061 -1.38536 -2.8748 -0.704126 -0.83867 3.01799 -0.279369 
-2.23656 -1.73168 -0.842111 -2.39222 -1.36958 -0.881827 -2.28649 -1.59544 -1.16161 
2.47391 0.448016 -0.628739 1.1979 2.60106 -3.82416 1.09746 2.80806 -3.43618 
1.44324 2.54625 -3.59397 0.951842 -2.18764 -3.56474 0.880555 2.71565 -3.83724 
0.750659 2.93769 -3.43754 0.623048 3.04777 -3.10076 0.977006 2.96242 -3.09659 
-2.49255 -1.03633 -1.46881 -2.4461 -1.21211 -1.1867 -2.55693 -0.903285 -1.19879 
-1.99184 -2.17032 -0.622275 0.445981 3.23084 -1.58846 -0.488818 -3.15758 -0.473816 
-0.769693 -3.16817 -0.522379 2.17648 -0.889816 -2.51029 2.31467 -0.50857 -2.39686 
2.20479 -0.775381 -2.08295 2.4595 0.359166 -1.80445 2.43251 0.55025 -1.34855 
2.43587 0.175513 -1.3775 1.98779 -1.32872 -0.904036 2.23136 -0.970205 -0.838573 
2.31749 -0.409102 -1.98592 -1.72819 2.47695 -0.568354 -2.6105 0.717546 -0.325724 
-2.60152 0.334931 -0.267513 -2.3329 -1.40844 -1.47348 0.714365 3.11953 -2.79228 
-2.0861 -1.98074 -0.35113 -0.905674 3.13091 -2.24683 -1.18793 2.93477 -2.15433 
-1.11467 3.07231 -1.88701 -2.62461 -0.664845 -1.43336 -2.69727 -0.276326 -1.53684 
-2.57135 -0.556053 -1.93382 -2.3861 1.57237 -0.279409 -2.5198 1.35954 -0.511486 
-0.996346 -3.06 -0.298204 -1.10161 2.94938 -2.46763 2.21893 -1.09487 -3.24886 
2.02868 -1.3962 -3.3312 2.18103 -1.31642 -3.65418 0.794321 3.11785 -1.71857 
1.06153 2.97116 -1.48979 1.11149 2.99898 -1.86159 1.4602 2.76429 -1.62659 
1.80813 -1.48348 -1.95761 1.99108 -1.23024 -1.71238 1.77709 -1.5355 -1.56704 
1.99265 -1.28211 -1.29961 -2.70107 0.571871 -1.30157 -2.65201 0.820965 -1.1109 
-1.67085 0.446841 -4.43639 -1.55529 0.0839476 -4.62791 -1.82055 0.0859022 -4.27049 
-2.24106 -1.71342 -0.45912 -1.40444 0.513285 -4.75592 2.27375 -0.648974 -1.73405 
2.14385 -0.93566 -1.80759 2.02147 -1.14054 -2.15383 1.94172 -1.38796 -2.96851 
-2.21897 -1.24249 -2.28193 -2.39124 -0.816999 -2.29652 -2.22112 -1.00913 -2.61914 
-2.05596 2.13098 -0.442785 -2.24974 1.97967 -0.688683 -2.22367 1.87949 -0.306657 
-1.5594 -0.930394 -4.17617 -1.73692 -0.588045 -4.1531 -1.53084 -0.611097 -4.45595 
-1.76925 -0.886612 -3.85357 -1.45875 -2.51546 -2.11721 -2.13772 -1.95154 -0.643371 
-2.61723 0.523007 -2.44194 -2.57218 0.847668 -2.62614 -2.5191 0.450344 -2.8216 
-2.61742 0.817135 -2.30541 -1.60086 2.45235 -2.53892 -1.69043 2.56284 -2.02411 
-1.39002 2.74276 -2.29302 -1.93679 2.26317 -2.23404 -1.24674 2.73843 -2.70759 
-1.356 2.55012 -2.98971 -2.56346 1.40329 -1.47595 -0.169622 3.41438 -1.00217 
-1.75203 2.56027 -1.57761 -1.94688 2.38206 -1.79746 -1.44647 2.78364 -1.831 
-2.16733 2.13049 -1.90978 -2.07098 2.27694 -1.52508 -2.31904 1.97092 -1.51308 
-1.94192 2.39223 -1.20599 -1.01935 -2.91989 -1.82809 -1.16641 -2.75436 -2.12255 
1.19815 -2.18652 -0.648464 1.43882 -1.96641 -0.794179 1.4437 -1.99202 -0.406031 
1.20517 -2.19046 -1.01484 -0.923874 1.56667 -4.71762 2.50052 0.0635139 -0.776039 
-1.2729 2.92192 -1.04925 -1.07181 -3.0288 -1.26914 -0.187296 3.2753 -0.220697 
1.85252 -1.43222 -2.25955 -1.19315 2.59103 -3.25937 -0.938782 2.73807 -3.45391 
-1.09203 2.51116 -3.59618 -0.792087 -3.08301 -1.5177 -0.714473 -3.16254 -1.12344 
[...]
POINT_DATA 2395
FIELD FieldData 1
Nodal_area 3 2395 float
0 0 0 0 0 0 0 0 0 
0 0 0 0 0 0 0 0 0 
0 0 0 0 0 0 0 0 0 
0 0 0 0 0 0 0 0 0 
0 0 0 0 0 0 0 0 0 
0 0 0 0 0 0 0 0 0 
0 0 0 0 0 0 0 0 0 
0 0 0 0 0 0 0 0 0 
0 0 0 0 0 0 0 0 0 
0 0 0 0 0 0 0 0 0 
0 0 0 0 0 0 0 0 0 
0 0 0 0 0 0 0 0 0 
0 0 0 0 0 0 0 0 0 
0 0 0 0 0 0 0 0 0 
0 0 0 0 0 0 0 0 0 
0 0 0 0 0 0 0 0 0 
0 0 0 0 0 0 0 0 0 
0 0 0 0 0 0 0 0 0 
0 0 0 0 0 0 0 0 0 
0 0 0 0 0 0 0 0 0 
0 0 0 0 0 0 0 0 0 
0 0 0 0 0 0 0 0 0 
0 0 0 0 0 0 0 0 0 
0 0 0 0 0 0 0 0 0 
0 0 0 0 0 0 0 0 0 
0 0 0 0 0 0 0 0 0 
0 0 0 0 0 0 0 0 0 
0 0 0 0 0 0 0 0 0 
0 0 0 0 0 0 0 0 0 
0 0 0 0 0 0 0 0 0 
0 0 0 0 0 0 0 0 0 
0 0 0 0 0 0 0 0 0 
0 0 0 0 0 0 0 0 0 
0 0 0 0 0 0 0 0 0 
-0.062617 -0.077061 -0.0150344 -0.0734871 -0.0983167 -0.0109917 -0.0575606 -0.0565087 -0.00918623 
0.0559123 0.160819 0.0205541 0.0201793 0.0741251 0.0120042 0.0350438 0.0717555 0.0113191 
-0.00116414 -0.0396625 0.00980994 0.0133366 -0.0458317 0.00957466 0.0784006 0.0216617 0.00612648 
0.0537159 0.0196447 0.0118422 -0.0895269 -0.0516215 -0.020061 -0.117863 -0.068139 -0.0222209 
-0.0889594 -0.0459252 -0.0188038 -0.0854303 -0.0566651 -0.0163013 -0.0516355 -0.00192889 0.0052016 
-0.0717674 -0.00566221 0.007797 0.0288864 -0.0596238 0.0115936 0.0149438 0.0280108 0.00499325 
0.0328558 0.0582916 0.0101277 0.0489867 0.0911626 0.0143758 -0.09651 0.00618558 0.0120119 
-0.122002 0.00159171 0.0103087 -0.134979 0.0114752 0.00952855 -0.109335 0.00197799 0.0163188 
0.0204929 -0.0350354 0.00678129 0.0216413 -0.0337466 0.00355729 -0.0672228 0.105169 0.0176741 
-0.0373041 0.0755542 0.00848586 -0.0649536 0.0896038 0.00658142 -0.0815976 -0.0768482 -0.00729709 
0.0222172 -0.0549056 0.00248236 0.0571276 -0.103547 0.00411645 0.0279863 -0.0575885 0.00651065 
0.0476267 -0.0797651 0.0102059 0.0290978 0.0138706 0.0106028 0.0564686 0.0400756 0.0157841 
-0.111013 0.0409897 0.00863668 -0.12878 0.0778808 0.0102921 -0.111602 0.047598 0.00412334 
-0.0156253 -0.0680964 -0.00100771 -0.058444 -0.111355 0.00647007 -0.0311772 -0.0708091 -0.00668713 
-0.104017 0.0516829 0.0177026 -0.109751 -0.036283 0.00296993 -0.0453218 -0.0173326 0.000660533 
-0.0495783 -0.0125654 0.00283992 0.0957167 0.0199026 0.000265148 0.170686 0.0414747 -0.00242984 
-0.0753729 -0.0315423 0.000178387 0.0567421 0.00293391 -0.0021725 0.0578279 -0.00659828 -0.00296411 
-0.0317916 -0.00419243 0.00307231 -0.107391 0.0651977 -0.0632316 -0.190391 0.0814094 -0.072161 
-0.0971719 0.0640763 -0.0480201 0.078201 0.023663 0.0134487 0.075496 0.0262361 0.0117441 
0.0902183 0.0282518 0.00616251 -0.113022 -0.0202266 0.00883463 0.0296519 0.00380342 -0.000544438 
0.0554256 -0.0157614 -0.00118642 0.0461292 -0.0644542 0.00266097 0.100824 -0.120954 0.00316523 
0.0476495 -0.0592823 -0.00155224 -0.0228521 0.0621569 0.0194102 0.078038 -0.114062 0.00786505 
0.0655328 -0.111175 -0.00213146 0.0331291 -0.0704935 -0.00417465 -0.0533813 -0.00254391 -0.0454896 
-0.057621 0.000727864 -0.0500601 -0.0836903 0.0148786 -0.0756422 0.0347808 -0.0886807 -0.0200764 
0.0590679 -0.147777 -0.0174157 0.0292015 -0.114945 -0.0269331 0.0739281 0.0251346 0.0121658 
-0.0705284 -0.0650392 -0.0139824 -0.0838502 -0.103991 -0.0295085 0.0920892 0.0251661 0.0135721 
0.0711478 0.0166955 0.0126171 0.0416574 0.0691518 -0.0580324 0.0555914 0.0655069 -0.0548941 
0.0299863 0.0512422 -0.0491114 0.0627377 -0.0476908 -0.00293093 0.0646839 -0.0424847 -0.000368115 
0.0473024 0.0674542 -0.0683322 0.143189 0.0240765 -0.00460538 0.128774 0.0269734 0.00174503 
0.0969435 0.057232 0.0058147 0.0918134 0.0344473 0.00173114 0.0769199 0.0366196 0.00752205 
-0.0504645 0.0906856 0.0253594 -0.0712553 0.104476 0.0279078 -0.09862 -0.0537162 -0.0296977 
-0.0787431 -0.0523055 -0.0278336 -0.0804869 -0.0484755 -0.024454 0.120337 0.0533872 0.000699896 
0.150435 -0.0261282 -0.0141955 -0.134172 -0.0839013 -0.0574512 -0.0615338 -0.0405101 -0.0156517 
-0.0400101 0.129687 0.019779 -0.124393 -0.0159328 0.0123309 -0.115506 -0.023104 0.00706059 
-0.145077 -0.0404027 0.00372343 0.0341173 -0.103113 0.0119861 -0.0865438 0.016772 0.00468633 
-0.067765 0.00935053 0.00465625 -0.091949 0.0238125 0.00413198 -0.0745072 -0.008986 -0.0652142 
0.0307155 0.00545248 -0.000424736 -0.100166 0.0222618 -0.000672179 -0.094537 0.013105 0.00444369 
-0.0949194 0.0132084 -0.00491697 0.14801 -0.0516665 -0.0169213 0.138301 -0.0200058 -0.0167836 
-0.000355096 -0.118648 -0.000894264 0.0198104 -0.0960871 -0.0188188 0.00174718 -0.0982617 -0.026935 
-0.0817224 -0.0570202 -0.015374 -0.0812193 -0.0613956 -0.0220829 -0.0577045 -0.050277 -0.0161641 
-0.0216889 -0.0730621 -0.0287476 -0.0113405 -0.10296 -0.0456484 -0.0146682 -0.108195 -0.0314472 
0.0190346 -0.0983458 -0.00294931 -0.0959886 -0.0647366 -0.0150229 -0.119471 -0.0890839 -0.0159407 
-0.119097 -0.078263 -0.0133241 -0.0487506 -0.0647933 0.00931595 0.00290529 0.154351 0.0277612 
0.0603054 -0.0572143 -0.0022525 0.0828117 -0.0666887 2.40917e-06 0.0871006 -0.0838039 -0.0022736 
0.0932028 -0.0770792 0.00106293 -0.0410259 0.0495968 0.0159487 -0.0328951 0.0470428 0.017616 
-0.0583718 0.0729552 0.017168 -0.0776762 0.0961624 0.0169779 0.048571 -0.0245663 0.000683699 
0.0873554 -0.0322602 -0.00440037 0.00588722 -0.0831272 -0.0263703 0.0069847 -0.0949526 0.000908758 
-0.0440972 0.0480421 -0.0605186 -0.0527355 0.0584177 -0.0691931 -0.0502537 0.0743585 -0.0870709 
0.0205611 0.148432 -0.0176817 0.0273858 0.0992667 -0.00539424 0.0417635 0.168775 -0.00534207 
-0.0845523 -0.0793944 0.00606701 -0.0604578 -0.0457628 0.00555862 -0.100924 -0.0771012 -0.00440269 
-0.0271762 -0.0258836 0.00362741 -0.0597555 -0.0727978 0.00144391 -0.0315467 0.0517169 0.0212918 
-0.114469 -0.0573263 -0.00453794 -0.114462 -0.0458482 -0.00133793 -0.108024 -0.0510937 -0.00980489 
0.139772 0.0182933 -0.0048058 0.0456004 0.0896906 -0.041912 0.0557123 0.12316 -0.0472856 
0.0656987 0.10591 -0.0447614 0.0267995 -0.124249 0.00656278 0.0382649 0.12468 -0.063613 
0.0339952 0.14045 -0.0502154 0.0189204 0.10008 -0.0277031 0.0490408 0.132993 -0.0349123 
-0.0928081 -0.0358569 -0.00873402 -0.108484 -0.0428279 -0.00614828 -0.0820321 -0.0253115 -0.00191263 
-0.0665597 -0.0459035 0.00114866 0.0397408 0.108466 0.00313966 0.00942109 -0.0664799 0.0104785 
-0.0154649 -0.0845493 0.0106895 0.145681 -0.071754 0.0149765 0.12518 -0.0418135 0.0122822 
0.126152 -0.0509824 0.000724451 0.18938 -0.0102368 0.0151813 0.15042 0.0127592 0.00177431 
0.123775 -0.00477924 -0.00579495 0.130273 -0.0942 -0.00638788 0.108259 -0.0618348 -0.00523797 
0.125397 -0.0331113 0.00154038 -0.0561993 0.0678714 0.0200254 -0.066869 0.00283913 0.0034872 
-0.0599189 -0.000978518 0.00480351 -0.105825 -0.0499622 -0.0156776 0.0280436 0.117033 -0.0218131 
-0.038273 -0.0237771 0.00458125 -0.0647207 0.104529 -0.0221675 -0.0592251 0.0719934 -0.0157449 
-0.0689638 0.0884951 -0.0150496 -0.140062 -0.0362201 -0.0103019 -0.128051 -0.0218232 -0.0108234 
-0.185968 -0.0509244 -0.0394458 -0.0493331 0.0217247 0.0119942 -0.0970811 0.0306557 0.0147287 
-0.0210368 -0.0523773 0.00963615 -0.0646731 0.0789748 -0.0178838 0.147456 -0.0806733 0.0339471 
0.0859043 -0.0673066 0.0247028 0.091203 -0.0592147 0.0251049 0.0534052 0.144955 0.0127187 
0.0698675 0.137342 0.0219165 0.0724521 0.146198 0.0140836 0.0802285 0.127678 0.0206964 
0.102919 -0.0721735 -0.00198151 0.120507 -0.0764591 -0.00839039 0.11207 -0.0854864 -0.00485665 
0.118074 -0.0822947 -0.0101255 -0.0844159 0.00864104 0.00674791 -0.0850024 0.00971003 0.00828354 
-0.103468 0.0177022 -0.080283 -0.125131 -0.00482838 -0.102941 -0.11389 -0.00572258 -0.0810687 
-0.055076 -0.0254327 0.00181786 -0.108489 0.022702 -0.0902756 0.101009 -0.0327147 -0.00948277 
0.0857846 -0.0422011 -0.00673191 0.145152 -0.0819276 0.00074615 0.109153 -0.0832654 0.0229494 
-0.129733 -0.056684 -0.0362531 -0.126619 -0.0467368 -0.0337474 -0.134479 -0.0554263 -0.0421736 
-0.0457819 0.0423104 0.0119706 -0.0704456 0.0527132 0.0136228 -0.046165 0.0304993 0.0122264 
-0.0929189 -0.0535136 -0.0610469 -0.10072 -0.0408282 -0.0623605 -0.0911129 -0.0383771 -0.0695742 
-0.137684 -0.0716283 -0.0745605 -0.101772 -0.102293 -0.0412268 -0.0656136 -0.0374658 -0.000906883 
-0.120251 -0.00168982 -0.0244484 -0.138179 0.0204876 -0.0365239 -0.156573 -0.00459143 -0.0457114 
-0.0840008 0.00932865 -0.0128019 -0.150951 0.151421 -0.0606361 -0.105437 0.121809 -0.0302619 
-0.0945712 0.107976 -0.0296406 -0.119047 0.118585 -0.0469048 -0.0923805 0.0960843 -0.0301202 
-0.100629 0.0918069 -0.0398728 -0.108441 0.0317502 0.000865881 0.0171895 0.17038 0.0141659 
-0.103933 0.121958 -0.00562575 -0.0724108 0.0769894 -0.0135362 -0.105913 0.126834 -0.0187985 
-0.113413 0.0939481 -0.0224784 -0.0894661 0.0847878 -0.00235151 -0.137142 0.0899961 -0.00246175 
-0.0861326 0.0925041 0.00610692 -0.0442462 -0.0985117 -0.0290099 -0.0591497 -0.0973706 -0.038097 
0.0826321 -0.0940522 -0.00372274 0.0762475 -0.0802626 -0.004157 0.0497324 -0.0534465 -0.00356444 
0.0983984 -0.106295 -0.000978932 -0.0786993 0.0600242 -0.0817642 0.119926 0.000621474 -0.00863142 
-0.121666 0.154558 0.0187226 -0.0460262 -0.0958225 -0.016073 -0.00145836 0.041922 0.00976375 
0.0770815 -0.0534952 0.00196617 -0.0606241 0.0557923 -0.0300879 -0.0545206 0.0766017 -0.0405875 
-0.0724837 0.067478 -0.0484193 -0.0268309 -0.150386 -0.032518 -0.0141576 -0.13147 -0.0160431 
-0.0836727 0.103494 -0.0413199 -0.0560136 0.0440476 -0.0318426 -0.0699803 0.0510339 -0.0433396 
-0.0551103 0.0393247 -0.0346583 0.0347383 -0.0541153 0.00653417 -0.111464 -0.0434124 -0.0301806 
-0.123654 0.109657 -0.0579669 -0.119699 0.102615 -0.0566445 -0.149582 0.0392841 -0.0296325 
-0.0710578 0.010243 -0.00911368 -0.0729315 0.0148491 -0.00629345 -0.147264 0.0497795 -0.0139594 
-0.0857874 0.0582713 -0.055277 0.0944831 -0.0944718 -0.00133872 0.113824 -0.133093 -0.00331627 
-0.134354 0.0764408 -0.0231124 -0.117135 0.0887277 -0.0448869 -0.094946 0.040761 -0.0029873 
0.0118751 -0.118416 -0.0173179 0.0211204 -0.150616 -0.0303741 0.023486 -0.076331 -0.0111005 
0.124118 0.00850748 -0.00840303 0.0439806 0.0716815 0.0140356 0.0883994 0.0349536 0.0128183 
0.122166 0.0459857 0.0183473 0.0566669 0.0204837 0.00498057 0.0848206 -0.120024 -0.0067331 
0.0653474 -0.085691 0.00159087 0.0269033 -0.0755778 -0.00368497 -0.124748 -0.00447189 0.0107044 
-0.096078 0.00303865 0.00039004 -0.0797107 -0.00610401 -0.00429223 -0.132398 0.0611514 -0.0802627 
-0.113763 0.0437857 -0.0748482 -0.134635 0.0280739 -0.0743009 -0.103123 0.02052 -0.0650599 
-0.0694979 0.00293691 0.00952617 -0.127428 0.0828947 -0.0799381 0.0632751 0.112358 0.0190575 
0.0798652 0.048699 0.0131455 -0.137127 -0.00263603 -0.0688825 -0.137596 -0.00313266 -0.0565197 
-0.157647 -0.0273215 -0.0504345 -0.156978 -0.0198509 -0.038647 0.144065 0.0463784 0.0058866 
0.109209 0.0543027 0.0188906 -0.131577 -0.03909 -0.0438986 -0.124191 -0.0310589 -0.0356419 
-0.150496 -0.055398 -0.0589003 -0.100522 -0.0374006 -0.0353125 -0.125076 -0.0546008 -0.0483422 
-0.118821 -0.103491 -0.0669954 -0.11857 -0.0971404 -0.0699398 -0.0882597 -0.111035 -0.0744529 
-0.0566756 0.0709621 -0.0725628 -0.0627395 0.0546498 -0.0610726 -0.0459165 0.0836811 -0.0831707 
-0.0738588 0.0470055 -0.059862 -0.0543942 0.0390535 -0.039966 0.0531214 0.0578902 0.0141749 
-0.0952917 -0.0141169 0.00434747 -0.138793 -0.0075942 0.0190374 -0.0911218 0.110025 0.0098566 
-0.0468339 0.0482997 0.0125258 -0.0721368 0.0808613 0.0133231 -0.0918209 0.0838566 0.0151021 
-0.0925682 0.0581544 -0.0646385 -0.0452464 -0.0486146 -0.0292263 -0.0451038 -0.0403401 -0.035149 
-0.0459493 -0.0377117 -0.0287705 -0.146946 -0.0870077 -0.0700949 -0.131496 -0.0644878 -0.0601091 
-0.127824 -0.0831834 -0.0720994 -0.079803 -0.0936125 -0.0699484 -0.0705882 -0.0581633 -0.0626672 
-0.0535651 -0.0498774 -0.0497054 -0.0758389 -0.0459881 -0.0692993 -0.0734088 -0.0552812 -0.0643514 
-0.0370155 0.0910061 -0.101625 -0.0286463 0.0896073 -0.0846003 -0.0666402 -0.106661 -0.0616821 
-0.0887144 -0.103312 -0.0811418 -0.0750698 0.0373778 -0.0563501 -0.0549347 0.0332087 -0.0393866 
-0.0725918 0.042916 -0.0558782 0.0213775 0.155001 -0.0067359 -0.0227151 0.137575 0.00445161 
-0.11231 0.0213519 -0.0403457 -0.0596753 0.0490121 -0.0333366 -0.0628391 0.0446902 -0.0399703 
-0.0212515 0.0638865 -0.0354791 -0.0391507 0.0975396 -0.0442143 -0.0444133 0.0793795 -0.0569875 
-0.0798926 0.0566773 -0.0523224 -0.0848996 0.0613681 -0.0543226 -0.0633357 0.0717082 -0.059912 
-0.0382114 -0.0881515 -0.0236261 -0.0375513 -0.0958371 -0.00753917 -0.0170126 -0.0684818 -0.0195751 
-0.0501451 -0.0934019 -0.00993082 -0.0190689 -0.115778 -0.026818 -0.015225 -0.0754856 -0.0276143 
0.144884 0.0448618 -0.00315583 0.0538564 0.154178 0.00534279 0.07722 0.169022 0.019999 
-0.0833587 -0.0373875 -0.017449 -0.0859773 -0.0293479 -0.0166651 -0.0106173 -0.115858 -0.0485588 
-0.0270806 -0.102166 0.00359336 -0.0889288 -0.0260257 -0.0236525 -0.122444 -0.0256781 -0.0289727 
-0.109173 -0.0360114 -0.0323554 -0.0876902 -0.00393841 0.0119014 -0.113766 0.00812254 -0.00300965 
-0.127427 0.00585148 -0.0173938 -0.116752 -0.0182832 -0.0202265 0.0926036 -0.0833942 -0.00150643 
0.0835978 -0.0805514 -0.0050043 0.137204 0.044471 0.0135562 0.122388 0.0275574 0.00979555 
-0.111146 -0.000861347 0.0127836 -0.074296 0.0558135 -0.0432627 -0.129264 -0.0044581 -0.0175871 
-0.0425107 0.0607467 -0.0531873 -0.03881 0.0909483 -0.0655588 -0.0316944 -0.0662302 -0.0394881 
-0.0513412 -0.132455 -0.0889426 -0.0190181 -0.0853793 -0.0489231 -0.0696315 -0.031669 -0.0179859 
-0.0886536 -0.0459901 -0.0233179 -0.0870502 -0.00852119 -0.0175107 0.0481511 0.0952368 0.0123337 
0.0417232 0.0795546 0.0114328 -0.0407589 0.106028 -0.0869037 -0.041764 -0.073523 -0.0178128 
-0.0797235 0.0978878 -0.000927386 -0.0738999 0.0904656 0.000445067 0.110623 -0.0914679 -0.00727495 
-0.0267732 0.00839763 0.00569845 -0.0705625 0.0110264 0.00595666 -0.0997654 0.018755 0.0073586 
0.0684771 -0.0615735 -0.0041138 0.0605174 -0.0484034 -0.00419302 -0.0649669 -0.0871134 -0.0565914 
-0.00486738 0.111787 -0.0213613 -0.0294598 0.0888052 -0.0174326 -0.0197765 0.160899 -0.0177675 
-0.0788939 -0.0374053 -0.0248563 0.0230779 -0.0204098 -2.56058e-05 -0.0189809 0.0921632 -0.0614676 
-0.0176481 0.0222232 0.00887821 0.0515162 -0.0465364 -0.00414385 -0.084356 -0.0982021 -0.0692976 
-0.0784783 0.0473295 -0.0770234 -0.0451521 0.0228404 -0.0411936 -0.0695553 0.0424079 -0.0604103 
0.134947 -0.06611 -0.0150905 0.0917736 -0.0528667 -0.00833067 -0.0636135 0.0320785 -0.0515347 
-0.0678912 -0.0899418 -0.0152855 -0.0876941 -0.0895189 -0.0351083 -0.0584592 -0.0710999 -0.0229686 
0.00978029 0.0893939 -0.0646364 0.0104944 0.0848256 -0.0536859 0.0234798 0.0845042 -0.0542441 
-0.0475756 0.0945891 -0.0132991 -0.0429003 0.0942593 -0.00342388 -0.0404656 0.0591417 -0.00315796 
-0.0281646 -0.113347 -0.0606201 -0.0236931 -0.068654 -0.042484 -0.0373332 -0.0919071 -0.0540833 
-0.058247 -0.100561 -0.0699436 -0.0861404 -0.0413207 -0.0323686 0.0913776 -0.0407342 0.0168165 
0.0888592 -0.0538496 0.0175731 0.104132 -0.00531235 0.0149948 0.0999451 -0.0195836 0.0142846 
0.160358 -0.0315072 0.0291101 0.129598 -0.0354329 0.016259 -0.139011 0.0674883 -0.0406463 
0.140753 0.0183748 0.0143708 0.101915 0.00572829 0.0142928 0.108427 0.0186405 0.0143287 
0.0140446 0.0600194 -0.0353782 -0.0817349 -0.0766713 -0.0410843 -0.0481774 -0.0740473 -0.0218437 
-0.0482894 -0.0952257 -0.0404178 -0.0890714 -0.121498 -0.0568503 -0.0418328 -0.110398 -0.0507527 
-0.09386 -0.120009 -0.0327583 -0.0969432 -0.093854 -0.0476923 0.0425623 -0.125643 -0.0454469 
0.0475256 -0.0941838 -0.0231623 0.0320032 -0.103431 -0.0365933 0.0248309 -0.124294 -0.0526636 
0.0416906 -0.117128 -0.0375038 0.0506033 0.155314 -0.00023533 0.0189126 -0.0908419 -0.0291495 
0.0223478 -0.0707656 -0.0161709 0.0331203 -0.0861274 -0.0119452 0.0445864 -0.0844066 0.00339165 
0.0377894 -0.0604367 -0.00452699 0.0853645 -0.102314 0.00802267 0.133382 0.0974951 -0.00965579 
0.0975319 0.10856 -0.016079 0.11396 0.116487 0.00277581 0.109279 0.0947368 -0.023196 
0.0560012 0.107118 0.0188581 0.0845324 0.13245 0.0108733 0.12407 0.12342 0.021484 
-0.0444584 -0.067324 -0.00890793 0.0564641 -0.0762149 -0.011517 0.0806192 -0.106093 -0.00859678 
0.0368422 0.055977 -0.0136171 0.0316582 0.0667982 -0.0162029 0.0457268 0.0796596 -0.00826555 
0.0407253 0.100934 -0.0148296 0.0621948 0.0737373 -0.0199751 -0.0609956 0.0503309 -0.0897986 
-0.0686181 0.0644412 -0.0984226 -0.0554548 0.0779971 -0.105594 -0.0695254 0.0968234 -0.12149 
0.0100244 -0.108195 -0.0433507 0.176305 0.0799536 0.00441833 0.161647 0.0224533 0.01888 
0.119693 0.0310027 0.00994569 0.0313993 0.0223377 -0.0630871 0.040001 0.024781 -0.0990687 
0.0181227 0.0325883 -0.121429 -0.0776844 0.0647253 0.00565101 0.162505 0.0372687 0.00918526 
0.0921194 -0.0771128 -0.00128822 0.135639 0.0344567 0.00644106 0.15029 0.049271 -0.00520573 
0.112676 0.0395492 -0.00454069 0.0127711 0.146908 -0.0730679 -0.00292859 0.141476 -0.0888182 
-0.0117677 0.152614 -0.076602 -0.103706 -0.0164861 -0.0905864 -0.101856 -0.0375974 -0.0844258 
-0.0984979 -0.0214821 -0.0856765 -0.133382 -0.0363305 -0.10653 0.126841 -0.0480419 0.0340583 
0.101187 -0.0403025 0.0251242 0.157713 -0.0376978 0.0254021 0.0896529 -0.00889117 0.0117062 
0.131146 0.00444853 0.00386142 0.092854 -0.00375783 -0.0105575 0.150964 -0.0528283 0.0290073 
0.143624 -0.053918 0.0260411 0.134328 -0.0516532 0.0288973 0.00964199 0.180335 -0.0624192 
0.122878 0.0537655 -0.0116163 0.139733 0.0566879 -0.0169561 0.147486 0.0981404 -0.0257696 
0.112176 0.0536438 -0.0081608 -0.113287 0.0385299 -0.0825996 0.0659529 0.0517222 -0.0531086 
0.0487321 0.0544447 -0.0587754 0.0626365 0.0628795 -0.0544807 0.144449 -0.0472001 0.0284304 
0.132953 -0.0437653 0.0225532 0.153607 -0.0171342 0.0187389 0.0113571 0.0859321 -0.0845426 
0.0122036 0.0824598 -0.0821637 0.0376526 0.0976334 -0.0880042 -0.0108969 0.090947 -0.0987613 
0.0878759 0.0498771 -0.0453384 0.0670316 0.0408124 -0.0494847 0.0809746 0.0586844 -0.045341 
0.0612172 -0.0918113 0.0213862 0.0588766 -0.0720286 0.0197829 0.0477072 -0.0840272 0.0187979 
0.0670372 -0.0872175 0.0255136 0.0481275 -0.0927365 0.0216083 0.0655111 -0.0937241 0.0266913 
0.0630903 0.0517866 -0.0344565 0.0669663 0.073883 -0.051952 0.0811846 0.0716142 -0.0417384 
0.0670955 0.0879047 -0.051185 0.101498 0.088699 -0.0678708 0.0851598 0.0544458 -0.0442602 
0.0552717 0.0936435 -0.0659099 -0.0621355 -0.068964 -0.052635 -0.0770212 -0.0624602 -0.0608496 
0.074077 0.0949859 0.0193706 0.0357304 0.0600303 0.0111432 0.0508563 0.0759925 0.0143663 
-0.0968059 -0.0466273 -0.087601 -0.0633876 -0.038178 -0.051397 0.0904172 -0.0250998 -0.0113953 
0.0983147 -0.0189603 -0.00871773 0.114722 -0.0157172 0.0141064 -0.102296 -0.0787907 -0.0371423 
0.0245559 -0.0282009 -0.00257272 -0.0663491 -0.0664469 -0.0367618 -0.0555257 -0.0839711 -0.043181 
0.106126 -0.123947 -0.00596085 0.0928059 -0.0900571 0.00112502 0.0714311 -0.0803709 -0.000619974 
0.029884 0.16185 -0.0166428 -0.0261649 0.0306648 0.00982467 -0.0768286 -0.0133799 -0.033998 
-0.0796659 -0.0109943 -0.0321013 -0.112451 -0.0297985 -0.0427797 -0.108789 -0.113776 -0.0854725 
-0.0871979 -0.0697965 -0.0524022 0.0156205 0.0913848 -0.0101111 0.00957822 0.120003 -0.0235785 
-0.0831938 0.0283851 -0.0660015 0.00736422 0.0809123 -0.0731105 -0.0118313 0.0876817 -0.0938107 
-0.101325 -0.0740924 -0.0648881 -0.0163012 -0.156944 -0.0925524 -0.0938552 0.06043 -0.041022 
-0.0771263 -0.0478053 -0.00827362 -0.0290446 -0.107412 -0.0661985 0.0886274 0.0839033 0.0140155 
0.134682 0.104576 0.0209909 0.0652312 -0.0930569 -0.00590491 -0.074489 -0.118686 -0.0766319 
0.0555693 -0.109556 -0.0262671 -0.0923234 -0.0524674 -0.0796514 -0.113295 -0.0559533 -0.0874274 
0.0336319 0.058995 0.0107211 0.0718112 0.149546 -0.000302143 0.0263327 0.0794738 -0.0710174 
0.0146628 0.142826 -0.0331532 -0.0963901 0.0318389 -0.092864 -0.0994642 0.0406525 -0.0923383 
-0.0162404 0.0502473 0.0116946 0.00482889 0.0730427 -0.0123314 -0.090517 0.00522351 -0.0804715 
0.103867 -0.032105 0.024596 -0.0366088 0.0928111 -0.10866 -0.0129126 0.092746 -0.0825805 
-0.00952461 -0.139972 0.0132235 -0.00517516 -0.156372 0.00987403 0.0227446 -0.111144 0.0161087 