# vtk DataFile Version 5.1
vtk output
ASCII
DATASET UNSTRUCTURED_GRID
POINTS 2395 float
-0.935458 1.98758 -1.77636e-15 -2.87457 1.1766 -1.77636e-15 -1.19488 1.86003 -1.77636e-15 
-1.44846 1.74697 -1.77636e-15 -1.67153 1.67895 -1.77636e-15 -1.87206 1.54322 -1.77636e-15 
-2.04961 1.31173 -1.77636e-15 -2.1852 1.07246 -1.77636e-15 -2.24486 0.713735 -1.77636e-15 
-2.277 0.371232 -1.77636e-15 -2.26348 0.0305202 -1.77636e-15 -2.20882 -0.329614 -1.77636e-15 
-2.15573 -0.705783 0 -2.05717 -1.08784 0 -1.87399 -1.42866 0 
-1.67791 -1.76538 0 -1.47747 -2.02994 0 -1.2336 -2.2971 0 
-0.951428 -2.48605 0 -0.647366 -2.60148 0 -0.284471 -2.57785 0 
-0.00225564 -2.41636 0 0.283167 -2.28929 0 0.570225 -2.10594 0 
0.864422 -1.9471 0 1.26195 -1.85881 0 1.49719 -1.66779 0 
1.69472 -1.50996 0 1.86587 -1.29356 0 2.05956 -1.05566 0 
2.12314 -0.777566 0 2.24978 -0.483352 -1.77636e-15 2.23574 -0.17558 -1.77636e-15 
2.17215 0.112536 -1.77636e-15 2.0606 0.351802 -1.77636e-15 1.90545 0.591765 -0.0828872 
1.71805 0.801134 -0.0200502 1.55107 1.0506 -1.77636e-15 1.36714 1.31388 0 
1.1305 1.53777 -1.77636e-15 0.855567 1.74291 -1.77636e-15 0.589578 1.91727 -1.77636e-15 
0.288565 2.09931 -1.77636e-15 -0.0134961 2.24416 -1.77636e-15 -0.337829 2.24401 -1.77636e-15 
-0.646493 2.13365 -1.77636e-15 -2.72715 1.54933 -1.77636e-15 -2.53664 1.83988 -1.77636e-15 
-2.31518 2.05903 -1.77636e-15 -2.10647 2.32059 -1.77636e-15 -1.88718 2.4911 -1.77636e-15 
-1.65217 2.64631 -1.77636e-15 -1.39365 2.85367 -1.77636e-15 -1.1229 2.95327 -1.77636e-15 
-0.763612 2.94916 -1.77636e-15 -0.433845 2.94531 -1.77636e-15 -0.0967993 2.92063 -1.77636e-15 
0.235724 2.89725 -1.77636e-15 0.59059 2.81856 -1.77636e-15 0.909063 2.68052 -1.77636e-15 
1.25461 2.51324 -1.77636e-15 1.62393 2.32493 -1.77636e-15 2.03909 2.1683 -1.77636e-15 
2.40352 2.03029 -1.77636e-15 2.64348 1.83937 -1.77636e-15 2.80391 1.58572 -0.0276138 
2.92404 1.29884 -0.00622544 3.00971 0.985393 -0.0372413 3.03411 0.655828 -0.14713 
3.00509 0.338238 -1.77636e-15 2.91761 0.00903367 -0.0602531 2.83113 -0.301207 -0.00271062 
2.76257 -0.623993 -0.0356649 2.67273 -0.94616 -0.0224112 2.53999 -1.2339 0 
2.3618 -1.46394 0 2.16105 -1.69136 0 1.95834 -1.9499 0 
1.76655 -2.18677 0 1.57506 -2.41526 0 1.35942 -2.63478 0 
1.11966 -2.87274 0 0.861646 -3.05678 0 0.565723 -3.27457 0 
0.251558 -3.48823 0 -0.125189 -3.63615 0 -0.470531 -3.55893 0 
-0.800794 -3.44222 0 -1.12963 -3.35345 0 -1.464 -3.23936 0 
-1.7534 -3.02399 0 -2.03147 -2.76313 0 -2.27916 -2.45914 0 
-2.48771 -2.12655 0 -2.66756 -1.77384 0 -2.807 -1.41266 0 
-2.93012 -1.05864 0 -3.03931 -0.708595 0 -3.10157 -0.35919 -1.77636e-15 
-3.10974 -0.00433851 -1.77636e-15 -3.05147 0.374478 -1.77636e-15 -2.97831 0.776236 -1.77636e-15 
-1.15593 -2.62912 -1.33938 -1.14571 -2.66549 -1.00714 -1.33468 -2.50023 -1.16223 
0.229104 2.31706 -0.805856 0.0823416 2.28823 -0.342607 0.390036 2.15534 -0.451469 
-0.462837 -2.73999 -0.23228 -0.166374 -2.65839 -0.240733 1.99523 0.572359 -0.45347 
1.86818 0.819316 -0.338626 -1.65421 -1.70154 -1.73267 -1.76935 -1.68533 -1.36655 
-1.76419 -1.43709 -1.61565 -1.56292 -1.92893 -1.56732 -2.24567 0.118605 -0.147285 
-2.20017 -0.294706 -0.201172 0.114418 -2.50475 -0.322237 0.505745 2.02149 -0.256582 
0.741995 1.88012 -0.299311 0.604112 2.0066 -0.562918 -2.25256 0.500617 -0.845498 
-2.2516 0.464903 -0.467752 -2.23631 0.773355 -0.583454 -2.25716 0.217239 -0.766497 
0.383847 -2.29181 -0.278689 0.64181 -2.13091 -0.243521 -0.691546 2.25996 -0.952412 
-0.516779 2.38903 -1.19218 -0.690548 2.29822 -1.29683 -1.33492 -2.47437 -0.863131 
-0.0477426 -2.68517 -0.824137 0.129299 -2.60213 -0.899264 0.0881726 -2.61344 -0.626172 
0.266603 -2.46993 -0.561262 1.73004 0.980402 -0.202539 1.6302 1.20347 -0.256113 
-2.12347 1.36227 -0.79357 -1.98892 1.56611 -0.963839 -2.08582 1.43592 -1.21167 
-0.665859 -2.85024 -0.788304 -0.903028 -2.78464 -0.639633 -0.852839 -2.85166 -0.94741 
-2.06212 1.45482 -0.557455 -2.07255 -1.0169 -0.428458 -2.01739 -1.20907 -0.225086 
-2.12582 -0.880055 -0.150327 2.09686 0.320094 -0.624032 2.03459 0.520047 -0.924349 
-1.96957 -1.29858 -0.498447 2.20477 -0.236979 -0.450645 2.18479 -0.46963 -0.540881 
-2.16913 -0.58169 -0.101246 -1.61637 1.22647 -2.95662 -1.91703 1.10692 -2.61658 
-1.60286 1.41282 -2.68908 1.99329 0.78548 -1.72334 1.89839 0.997735 -1.71333 
1.8889 0.921195 -1.49274 -2.17216 -0.659472 -0.382346 2.18518 -0.0144263 -0.374636 
2.2405 -0.752841 -0.405851 0.6359 -2.18331 -0.552929 0.735482 -2.11786 -0.834764 
0.830322 -2.02979 -0.430718 -0.430124 2.3153 -0.352474 0.47549 -2.32961 -0.793154 
0.296841 -2.51826 -1.17598 0.0603274 -2.6359 -1.23009 -0.749225 0.203199 -4.56768 
-0.910589 0.274889 -4.37789 -0.722071 0.329565 -4.65668 0.205508 -2.52954 -1.87785 
0.0619093 -2.62465 -1.53931 -0.139198 -2.62303 -1.88922 2.00967 0.930225 -1.98445 
-1.39691 -2.38045 -1.45243 -1.2014 -2.55597 -1.70352 2.10395 0.681401 -2.05843 
2.07563 0.547922 -1.82021 1.65369 0.934415 -5.18562 1.80591 0.766802 -5.22983 
1.62691 0.865038 -5.39707 1.69546 -1.4795 -0.381115 1.91437 -1.24673 -0.338612 
1.76746 0.652244 -5.51484 2.11462 0.219966 -1.00315 2.06047 0.355883 -1.3097 
1.70339 1.23446 -1.02197 1.80685 1.0567 -1.19945 1.72014 1.24527 -1.3535 
-0.578465 2.28341 -0.620591 -0.82696 2.13999 -0.625263 -1.57276 -1.5148 -2.23129 
-1.4459 -1.7969 -2.32201 -1.52723 -1.76314 -2.06038 1.81576 1.04371 -0.852005 
2.14451 -0.566137 -0.871917 -1.52211 -1.51711 -2.61521 -1.56899 -1.93056 -1.91356 
-0.403992 2.40795 -0.910067 -2.2014 -0.454332 -0.562011 -2.19596 -0.540364 -0.917437 
-2.12717 -0.840054 -0.734942 -0.114012 -2.69697 -0.566382 -2.21523 1.00292 -1.16432 
-2.22703 0.953134 -0.876573 -2.17489 1.18781 -1.0046 -0.878161 0.00134072 -4.40202 
2.14376 0.17692 -0.403594 -2.21975 0.959715 -1.56613 -2.24866 0.741931 -1.2896 
-2.21762 0.697334 -1.65731 2.02246 -0.871223 -1.08027 2.09277 -0.540946 -1.33587 
0.608746 -2.10507 -3.44298 0.574399 -2.12911 -3.07599 0.35981 -2.01023 -3.24823 
-1.50303 -2.18362 -1.48351 -1.45437 -2.13607 -1.83221 -1.42532 -2.33129 -1.72559 
-0.816083 -2.6714 -2.07118 -0.603351 -2.60814 -2.18853 -0.647894 -2.75001 -1.86438 
-0.2511 -2.80083 -0.933655 -1.60628 -1.94857 -1.23902 -1.48963 -2.25501 -1.10394 
-1.65971 -1.92954 -0.853451 -1.09057 -2.56154 -0.350833 -0.162296 2.40976 -0.62003 
1.29773 -1.82191 -2.16113 1.39943 -1.65378 -2.01195 1.20555 -1.84639 -1.91911 
1.50697 -1.60335 -2.33261 -1.2379 1.93064 -0.402025 -0.974421 2.04269 -0.291104 
-1.07004 2.00044 -0.623766 -1.25188 1.92888 -0.745178 2.09736 -0.997576 -0.368183 
2.18391 -0.922674 -0.663192 -0.379649 -2.70497 -1.97256 -0.418254 -2.86562 -0.735578 
-0.154795 1.23906 -4.62627 -0.236115 1.44581 -4.40114 -0.00997185 1.35353 -4.65137 
0.095691 2.41047 -1.95595 0.336775 2.38476 -1.67697 0.509909 2.30926 -1.9787 
-1.34915 -2.42342 -0.514119 -1.5419 -2.0965 -0.326291 -1.51479 -2.23916 -0.678662 
-1.34764 -2.33948 -0.232581 -1.17448 -2.63891 -0.669443 -0.773959 2.19682 -0.279369 
-1.85142 -1.58336 -0.719269 -1.99413 -1.22061 -0.758314 -1.87243 -1.48459 -1.02614 
2.17028 0.0138996 -0.699675 1.37827 1.77277 -3.67361 1.13251 1.87354 -3.30956 
1.42297 1.68467 -3.42294 0.88014 -2.10875 -3.32945 1.06093 1.88736 -3.68668 
0.937962 2.06772 -3.34885 0.810352 2.1778 -3.01207 1.01205 2.02791 -2.96997 
-2.02251 -0.980946 -1.32245 -2.01581 -1.10793 -1.04736 -2.10132 -0.850081 -1.05632 
-1.68512 -1.96382 -0.563416 0.528982 2.26892 -1.59456 -0.33763 -2.78809 -0.454693 
-0.601442 -2.8557 -0.49986 1.86108 -1.02693 -2.42838 1.98128 -0.727523 -2.35887 
1.88925 -0.871812 -1.98759 2.12566 -0.0205764 -1.83901 2.11581 0.0778779 -1.41485 
2.11249 -0.231677 -1.42625 1.80113 -1.44964 -0.742205 2.03811 -1.1679 -0.701285 
1.98121 -0.599913 -1.93737 -1.42514 1.85578 -0.520731 -2.26336 0.711648 -0.15498 
-2.25986 0.425216 -0.114449 -1.91885 -1.29759 -1.338 0.879665 2.21809 -2.75408 
-1.75743 -1.74724 -0.306111 -0.502435 2.36324 -2.18768 -0.765964 2.20333 -2.05677 
-0.749641 2.24374 -1.84588 -2.1346 -0.667601 -1.28521 -2.21119 -0.333923 -1.39335 
-2.05448 -0.597467 -1.77979 -2.10444 1.46334 -0.279409 -2.16637 1.26954 -0.368976 
-0.79344 -2.72687 -0.279092 -0.698372 2.18171 -2.40848 1.99636 -1.11495 -3.11813 
1.81038 -1.42306 -3.18474 1.95847 -1.3365 -3.52345 0.749432 2.12512 -1.68792 
1.01664 1.97842 -1.45914 1.09481 2.01669 -1.80748 1.27086 1.77059 -1.52855 
1.54065 -1.42574 -1.81867 1.68849 -1.25197 -1.6003 1.47722 -1.49694 -1.46335 
1.67118 -1.25566 -1.22915 -2.28222 0.492952 -1.17758 -2.24867 0.755038 -0.972084 
-1.1695 0.49125 -4.00302 -1.05394 0.128357 -4.19454 -1.30983 0.157613 -3.878 
-1.89071 -1.50185 -0.38551 -0.895485 0.461719 -4.34497 1.93878 -0.859956 -1.70012 
1.81334 -1.06011 -1.73931 1.71887 -1.16228 -2.04176 1.72892 -1.39777 -2.79978 
-1.71707 -1.19827 -2.12928 -1.84982 -0.832099 -2.13509 -1.68662 -0.974329 -2.43998 
-1.76099 1.76812 -0.397707 -1.92728 1.62164 -0.647676 -1.92302 1.6483 -0.223817 
-1.20132 -0.709133 -3.7231 -1.28834 -0.446388 -3.76655 -1.10108 -0.474334 -3.99093 
-1.32067 -0.744956 -3.46701 -1.26458 -2.34918 -2.0537 -1.79918 -1.77173 -0.55054 
-2.07786 0.411265 -2.26506 -2.08043 0.67725 -2.49579 -1.97973 0.338602 -2.64472 
-2.15194 0.668241 -2.19661 -1.11416 1.92408 -2.35529 -1.26461 1.89562 -1.89848 
-0.96805 2.01132 -2.19545 -1.49182 1.72764 -2.07907 -0.794008 2.0767 -2.59197 
-0.88539 1.9521 -2.86864 -2.14805 1.22635 -1.39754 -0.0693716 2.45531 -1.02254 
-1.33401 1.96724 -1.45065 -1.52886 1.78902 -1.6705 -1.02065 2.11641 -1.70537 
-1.73613 1.68065 -1.78322 -1.66851 1.75381 -1.41836 -1.93416 1.60139 -1.4559 
-1.57122 1.79881 -1.11748 -0.937065 -2.71084 -1.81639 -1.08412 -2.54531 -2.11085 
0.958467 -1.91876 -0.595707 1.16474 -1.73709 -0.741212 1.32656 -1.83508 -0.32509 
0.988051 -1.92472 -0.945835 -0.424246 1.17737 -4.4628 2.19373 -0.271812 -0.813627 
-0.970634 2.10456 -1.01209 -0.943752 -2.82149 -1.25099 -0.162684 2.3393 -0.243881 
1.61043 -1.39284 -2.09468 -0.716597 2.02751 -3.12653 -0.487004 2.13419 -3.33931 
-0.617376 1.95377 -3.44544 -0.730482 -2.83366 -1.51253 -0.598352 -2.88743 -1.10658 
[...]
POINT_DATA 2395
FIELD FieldData 1
Nodal_area 3 2395 float
0 0 0 0 0 0 0 0 0 
0 0 0 0 0 0 0 0 0 
0 0 0 0 0 0 0 0 0 
0 0 0 0 0 0 0 0 0 
0 0 0 0 0 0 0 0 0 
0 0 0 0 0 0 0 0 0 
0 0 0 0 0 0 0 0 0 
0 0 0 0 0 0 0 0 0 
0 0 0 0 0 0 0 0 0 
0 0 0 0 0 0 0 0 0 
0 0 0 0 0 0 0 0 0 
0 0 0 0 0 0 0 0 0 
0 0 0 0 0 0 0 0 0 
0 0 0 0 0 0 0 0 0 
0 0 0 0 0 0 0 0 0 
0 0 0 0 0 0 0 0 0 
0 0 0 0 0 0 0 0 0 
0 0 0 0 0 0 0 0 0 
0 0 0 0 0 0 0 0 0 
0 0 0 0 0 0 0 0 0 
0 0 0 0 0 0 0 0 0 
0 0 0 0 0 0 0 0 0 
0 0 0 0 0 0 0 0 0 
0 0 0 0 0 0 0 0 0 
0 0 0 0 0 0 0 0 0 
0 0 0 0 0 0 0 0 0 
0 0 0 0 0 0 0 0 0 
0 0 0 0 0 0 0 0 0 
0 0 0 0 0 0 0 0 0 
0 0 0 0 0 0 0 0 0 
0 0 0 0 0 0 0 0 0 
0 0 0 0 0 0 0 0 0 
0 0 0 0 0 0 0 0 0 
0 0 0 0 0 0 0 0 0 
-0.0578384 -0.0648196 -0.00699578 -0.0650231 -0.0860403 0.00247324 -0.0518851 -0.0459298 -0.00217972 
0.0614601 0.136095 0.022684 0.0231944 0.0621222 0.0117579 0.0377759 0.0570893 0.0106323 
0.00374884 -0.0351973 0.014284 0.0176191 -0.0365039 0.00945883 0.0532515 0.0189729 0.00450536 
0.0387695 0.0159813 0.00976763 -0.0829982 -0.033704 -0.0174028 -0.107385 -0.0499457 -0.0229611 
-0.0836592 -0.0333106 -0.019275 -0.0811554 -0.0382636 -0.010636 -0.0453319 -0.00355305 -0.000720715 
-0.0643089 -0.00603046 0.00191651 0.0290067 -0.0456246 0.0128855 0.0144292 0.0204642 0.00363864 
0.0299267 0.0474779 0.00677396 0.0478369 0.0688075 0.0116817 -0.0922279 0.00372213 0.00423082 
-0.109424 0.000250681 -0.00115861 -0.122549 0.00682454 -0.00246304 -0.104793 -0.00201471 0.00564953 
0.0184251 -0.0274803 0.00908566 0.0196623 -0.028604 0.0059252 -0.0476045 0.0840705 0.0101921 
-0.029508 0.0604129 0.00589769 -0.0479622 0.0765617 0.00288219 -0.0705139 -0.0588998 0.00281822 
0.0205582 -0.0418302 0.00448291 0.0552358 -0.0827587 0.00592503 0.0251712 -0.0433927 0.00730946 
0.0468767 -0.0629456 0.0119138 0.020954 0.0110397 0.0090374 0.0409656 0.0336743 0.0130443 
-0.080321 0.035814 -0.000584491 -0.0710742 0.0715598 -0.00114539 -0.0760598 0.0405878 -0.00364037 
-0.00773823 -0.0606937 0.00506534 -0.0479086 -0.100975 0.0204274 -0.0245617 -0.0673549 0.00560004 
-0.0600035 0.0429882 -0.00273666 -0.0937068 -0.0299677 -0.00238259 -0.0362816 -0.0129895 -0.00160038 
-0.0424055 -0.0106245 -0.000637465 0.0670961 0.0193845 -0.00063886 0.120391 0.0390348 -0.00248995 
-0.0638897 -0.024521 -0.00196694 0.0425892 0.00183564 -0.00143412 0.0466494 -0.00119982 -0.00429365 
-0.0280827 -0.00345763 0.00125943 -0.0670965 0.0533175 -0.0521451 -0.142039 0.0664489 -0.0683616 
-0.0540478 0.0585532 -0.0390929 0.0613943 0.020746 0.0142429 0.0432305 0.0191432 0.0112812 
0.0593634 0.0255796 0.00680441 -0.097796 -0.0179607 0.000837588 0.0226443 0.00342195 -0.000739819 
0.0505603 -0.00460616 -0.00553194 0.0398928 -0.0520896 0.00516123 0.0742403 -0.0885204 0.0104946 
0.0313492 -0.0472427 -0.00324917 -0.0143228 0.0532312 0.00779713 0.0715026 -0.0932288 0.0120814 
0.0562218 -0.0899069 0.0038462 0.0301813 -0.0552921 -0.00318651 -0.0493438 -0.000127152 -0.0307652 
-0.0378677 0.000658325 -0.0278471 -0.0637562 0.00996133 -0.041931 0.0272823 -0.074894 -0.0161449 
0.0524745 -0.124061 -0.0127662 0.0305011 -0.0948738 -0.0242932 0.0566187 0.0206794 0.0148816 
-0.0673446 -0.0537681 -0.00536641 -0.0760958 -0.0842214 -0.0185614 0.081611 0.0222712 0.0185632 
0.0543799 0.0143752 0.0119363 0.0362025 0.055433 -0.0340855 0.048362 0.062426 -0.0338897 
0.0267821 0.0408673 -0.0293804 0.037316 -0.0501777 -0.00583997 0.0464593 -0.0395423 0.00844114 
0.0449636 0.0663986 -0.0501811 0.108143 0.0232596 -0.00537808 0.0998008 0.0259901 0.00303208 
0.0698905 0.0469069 0.00353655 0.0636734 0.0318404 0.00239309 0.0552188 0.0283947 0.00776904 
-0.0380704 0.0761187 0.00566878 -0.0513314 0.0851643 0.00459946 -0.0857443 -0.0338143 -0.023343 
-0.0718115 -0.0353608 -0.0237456 -0.0715001 -0.0269748 -0.0259704 0.0845887 0.0471329 -0.00154201 
0.133611 -0.0153895 -0.0247309 -0.107434 -0.0530529 -0.0564501 -0.0565088 -0.0221417 -0.0126588 
-0.0301234 0.101718 0.0131002 -0.108174 -0.0142223 0.00310603 -0.101242 -0.0214169 -0.00166892 
-0.126532 -0.0354056 -0.00335023 0.0415993 -0.0808919 0.0131572 -0.080375 0.015419 -0.00123989 
-0.0571897 0.00810166 -5.3172e-05 -0.0788556 0.0220706 -0.00211534 -0.0676608 -0.00500116 -0.0484322 
0.0232836 0.00546064 -0.00092108 -0.0897646 0.0163201 -0.00871553 -0.0888643 0.00884352 -0.00436454 
-0.0864428 0.00840472 -0.00979486 0.116358 -0.0546001 -0.036152 0.10779 -0.0228124 -0.0156235 
-0.0253648 -0.109523 0.00566973 -0.0107489 -0.0848667 -0.00490388 -0.022406 -0.0897985 -0.0130387 
-0.0768666 -0.0290018 -0.00785432 -0.0739906 -0.0340644 -0.01786 -0.052601 -0.0346082 -0.0130166 
-0.011789 -0.05583 -0.0271622 0.00557523 -0.0724923 -0.0457578 -0.000603838 -0.0864335 -0.0245697 
0.0290458 -0.0789415 0.00273313 -0.0914142 -0.0483046 -0.0109561 -0.11357 -0.061222 -0.00520414 
-0.109985 -0.0592628 -0.0102093 -0.0369537 -0.0540817 0.0203373 0.0114183 0.124662 0.0200012 
0.0489646 -0.0498585 0.0059645 0.0677436 -0.0533196 0.00958133 0.0707325 -0.0694932 0.00510657 
0.083205 -0.0665816 0.0101953 -0.0162645 0.0414514 -0.000930951 -0.0219534 0.0377944 -9.46052e-05 
-0.0329803 0.0659464 0.00443217 -0.0380265 0.0795704 0.00380195 0.0387675 -0.0246638 0.00619486 
0.0856629 -0.0264791 -0.0181221 0.0148177 -0.0656257 -0.0250112 0.0185772 -0.0798163 0.00554294 
-0.0383672 0.0425732 -0.0487445 -0.0378476 0.0449394 -0.0471378 -0.0293806 0.0569717 -0.054429 
0.0253752 0.126403 -0.00497515 0.0284849 0.0870233 0.00233899 0.0515706 0.11783 0.00730815 
-0.0689825 -0.0629199 0.0167447 -0.0551254 -0.0380451 0.0122612 -0.0928391 -0.060705 0.0033153 
-0.0214777 -0.0211839 0.00643114 -0.0472317 -0.0606169 0.0122021 -0.022681 0.0429091 -0.000522196 
-0.102458 -0.0429139 -0.00470883 -0.10287 -0.0382627 -0.00454593 -0.101363 -0.0377739 -0.0075501 
0.105862 0.0173709 -0.00518237 0.0371837 0.064733 -0.00821653 0.0579854 0.0921618 -0.0123555 
0.059459 0.0711425 -0.00876519 0.0129498 -0.121577 0.0101595 0.040321 0.0875172 -0.0269382 
0.0572086 0.087376 -0.0172888 0.0302359 0.0676163 -0.0082354 0.0613262 0.0941083 -0.0204728 
-0.0770783 -0.0249604 -0.0114935 -0.0957401 -0.0339116 -0.00833976 -0.070941 -0.0218634 -0.00649745 
-0.0587795 -0.0364229 0.00457436 0.0468745 0.0739108 0.0125086 0.0191908 -0.0564095 0.0140038 
-0.00635838 -0.0760319 0.0173348 0.111306 -0.0598171 0.0177758 0.106683 -0.0379015 0.0143529 
0.0943302 -0.0446411 0.00156257 0.144341 -0.0155464 0.0102092 0.118023 0.00947545 -0.000737614 
0.0953428 -0.00679664 -0.00809849 0.0855755 -0.111122 -0.0283966 0.0941373 -0.0680098 -0.0234914 
0.0979163 -0.0288955 0.000628339 -0.0206123 0.0532202 -0.00127573 -0.059167 0.00145097 -0.00285821 
-0.0508759 -0.00168496 -0.00132096 -0.0982122 -0.0373574 -0.0172837 0.0385319 0.0845651 -0.00706022 
-0.0323429 -0.0186129 0.00762445 -0.0480168 0.0838082 -0.0124266 -0.0457794 0.0646298 -0.0136838 
-0.0401807 0.0667178 -0.00448831 -0.120027 -0.035168 -0.0170739 -0.117334 -0.0235586 -0.0190373 
-0.170771 -0.0493245 -0.048126 -0.022319 0.0143482 -0.00400842 -0.0613401 0.0218412 -0.00474928 
-0.0177291 -0.0457761 0.016761 -0.0530749 0.0702461 -0.0108386 0.135018 -0.0656473 0.0331323 
0.0828443 -0.0518507 0.0232974 0.088699 -0.0472387 0.0215458 0.0573162 0.113246 0.0174258 
0.0673967 0.112503 0.029917 0.0668276 0.115534 0.0229677 0.0649914 0.0804529 0.020309 
0.0780183 -0.0542492 0.00375806 0.0854551 -0.0641132 -0.00100047 0.080771 -0.0650912 0.00452497 
0.0924478 -0.0787068 -0.0206971 -0.0836874 0.00477662 -0.000910513 -0.0808993 0.0073294 0.00174975 
-0.0782667 0.016881 -0.0601662 -0.093658 0.00152252 -0.0748905 -0.0847955 0.000896934 -0.0592771 
-0.0468787 -0.0185072 0.00102432 -0.0897418 0.021981 -0.0658645 0.0697907 -0.0298201 -0.00836015 
0.0582883 -0.0366737 -0.00425795 0.104364 -0.0640763 0.00531061 0.0994327 -0.0651905 0.0271863 
-0.108075 -0.0326108 -0.0356099 -0.111897 -0.0400047 -0.0378462 -0.111594 -0.0346324 -0.0374762 
-0.0235811 0.0413179 -0.000285924 -0.0482473 0.0513843 -0.00164411 -0.029915 0.0299586 -0.00267779 
-0.064951 -0.0330947 -0.0454105 -0.072434 -0.0250828 -0.0468981 -0.0653062 -0.0222334 -0.0511459 
-0.0980062 -0.0456554 -0.0569951 -0.0896625 -0.0673625 -0.0357519 -0.054171 -0.0256426 -0.000939952 
-0.0944011 -0.0165485 -0.0285718 -0.114158 0.0098814 -0.0438737 -0.118022 -0.0143099 -0.0464688 
-0.0725657 0.0040216 -0.0181657 -0.0928165 0.134962 -0.0354527 -0.070141 0.112694 -0.0240519 
-0.0625083 0.0938172 -0.0187595 -0.0689287 0.107062 -0.0262218 -0.059568 0.0786553 -0.0123606 
-0.0757019 0.0780624 -0.027162 -0.0894758 0.0289182 -0.00588929 0.0270737 0.135001 0.0151533 
-0.065614 0.113137 -0.00618398 -0.0404904 0.0731218 -0.0148486 -0.064911 0.109698 -0.0163421 
-0.0522273 0.0853087 -0.0213786 -0.0463975 0.0816408 -0.00530206 -0.0732627 0.0868393 -0.00955147 
-0.0380135 0.0813242 0.00324584 -0.0332535 -0.0801765 -0.0200749 -0.0463743 -0.0686517 -0.0330443 
0.0554855 -0.0826495 -0.0170169 0.0377573 -0.0876967 -0.00813444 0.0332812 -0.0573792 -0.0215269 
0.06708 -0.0782639 0.0126552 -0.0541329 0.0476096 -0.0548124 0.0872621 -0.00198899 -0.0068105 
-0.0737924 0.130342 0.0113196 -0.0374508 -0.0833245 -0.00616713 0.00158119 0.0321279 0.00601981 
0.0643465 -0.0395875 0.00941806 -0.0436348 0.0416177 -0.0203687 -0.0332542 0.0578935 -0.0295179 
-0.0517945 0.0497457 -0.0360618 -0.00970703 -0.121458 -0.0230654 0.002173 -0.111571 -0.00360248 
-0.0595245 0.0835469 -0.0230279 -0.034497 0.0317048 -0.0192539 -0.0504367 0.0386758 -0.0324556 
-0.0418349 0.0373358 -0.0300919 0.0325136 -0.0450603 0.00879876 -0.0927157 -0.0317652 -0.0302776 
-0.0710115 0.101015 -0.0394379 -0.0731057 0.0819538 -0.0383469 -0.124399 0.0360391 -0.0322559 
-0.068663 0.0118824 -0.010398 -0.0593548 0.00970341 -0.0116325 -0.103566 0.0389455 -0.0215476 
-0.0608965 0.0508101 -0.0431002 0.0614201 -0.0683381 0.0139775 0.0777896 -0.0987592 0.0131279 
-0.0758173 0.0676056 -0.0268292 -0.0637622 0.0831489 -0.028325 -0.0633312 0.034773 -0.00924579 
0.0217401 -0.0932436 -0.0115778 0.0305115 -0.118589 -0.0238374 0.0264241 -0.0616135 -0.00957834 
0.0956667 0.00699514 -0.00884879 0.0362646 0.0586389 0.00868123 0.0645419 0.0298981 0.0144483 
0.0797318 0.0421723 0.0197134 0.0321878 0.0153286 0.0040959 0.0630003 -0.0953072 0.00176696 
0.0507452 -0.0651169 0.0078612 0.0295633 -0.0606292 -0.00151795 -0.113633 -0.00931201 -0.000326176 
-0.0864236 -0.00335891 -0.00980626 -0.0683398 -0.00730319 -0.0116537 -0.0872223 0.0488519 -0.075117 
-0.0761199 0.0401296 -0.0585302 -0.0949093 0.02299 -0.064038 -0.0770803 0.0187974 -0.0529407 
-0.0660253 -0.000195643 0.00294937 -0.0686166 0.0627501 -0.0604603 0.0572972 0.0895768 0.0134126 
0.0659659 0.0432582 0.0135389 -0.0942914 0.00140344 -0.0543609 -0.101595 -0.00762856 -0.0520578 
-0.117321 -0.0244492 -0.0451684 -0.125404 -0.0236093 -0.0416408 0.10356 0.0408804 0.00440194 
0.07745 0.0448947 0.0141167 -0.105171 -0.0288004 -0.0401986 -0.101076 -0.0226557 -0.0357264 
-0.124982 -0.0348985 -0.0489462 -0.0880766 -0.0256704 -0.0320925 -0.102881 -0.0348877 -0.0406672 
-0.0949611 -0.0586067 -0.0646875 -0.0822521 -0.0538409 -0.0617768 -0.0541947 -0.0573461 -0.0636659 
-0.0364492 0.0534179 -0.0474755 -0.0491707 0.044324 -0.0451075 -0.0228303 0.0632032 -0.0528619 
-0.0452539 0.0341024 -0.034581 -0.0442575 0.0320768 -0.031453 0.0405603 0.0478591 0.0104194 
-0.0824184 -0.0147176 -0.00233506 -0.125649 -0.0107412 0.00683428 -0.0475246 0.0928893 0.00933084 
-0.0111066 0.0452876 0.000439218 -0.0255563 0.0709783 -0.00105791 -0.0408838 0.0787676 -0.00518904 
-0.0640812 0.0470579 -0.0445959 -0.0471636 -0.0278958 -0.012444 -0.0473834 -0.0177209 -0.0178951 
-0.0456368 -0.0185522 -0.0197884 -0.108309 -0.0516791 -0.0632348 -0.0868003 -0.0380292 -0.0471029 
-0.0921375 -0.0506266 -0.0602538 -0.0830025 -0.0685723 -0.0467383 -0.0586625 -0.0404127 -0.0353191 
-0.0375812 -0.0327955 -0.030537 -0.0571583 -0.0292901 -0.0432649 -0.0514136 -0.0355303 -0.0456452 
-0.0239694 0.0752047 -0.0572338 -0.018798 0.0712136 -0.0572697 -0.0624536 -0.0644526 -0.0450973 
-0.0643926 -0.0770807 -0.0607178 -0.0551174 0.0348694 -0.039695 -0.0420915 0.0287995 -0.0297569 
-0.0508167 0.0339232 -0.0364382 0.0295067 0.127599 0.00152869 -0.0107929 0.10263 0.00569091 
-0.0843769 0.0107071 -0.0440883 -0.0308191 0.042384 -0.0228083 -0.0338917 0.0419318 -0.0271614 
-0.00846384 0.0491953 -0.0276373 -0.0177854 0.0755932 -0.0285947 -0.0240771 0.061567 -0.0362778 
-0.0618181 0.0447915 -0.0404293 -0.0511695 0.0358754 -0.0329776 -0.0453742 0.0552548 -0.0445907 
-0.0531325 -0.0746837 -0.00481057 -0.0650402 -0.0748017 -0.00131059 -0.0350278 -0.0478103 -0.0115756 
-0.0686032 -0.0748804 -0.00452139 -0.0562351 -0.083137 -0.0189402 -0.0279763 -0.0461069 -0.0362535 
0.107531 0.0431622 -0.000260566 0.0587914 0.129866 0.0156729 0.0811693 0.128683 0.0264078 
-0.0724995 -0.0272191 -0.018442 -0.0719579 -0.0232207 -0.0170488 -0.0295605 -0.0777837 -0.039909 
-0.0434967 -0.0919626 -0.000252063 -0.0818278 -0.0228593 -0.0277899 -0.107789 -0.0252335 -0.0355056 
-0.0899854 -0.0289193 -0.0336792 -0.0786142 -0.00654391 0.00274314 -0.10644 0.000447499 -0.0111262 
-0.112507 -0.00731138 -0.0222931 -0.103685 -0.0178636 -0.0263196 0.0684397 -0.0620445 0.0101207 
0.0507326 -0.0687929 -0.00376702 0.110708 0.0418556 0.0173703 0.094766 0.0252137 0.015975 
-0.100326 -0.00490076 0.00166534 -0.0431309 0.0490469 -0.0295246 -0.113251 -0.0143217 -0.0221121 
-0.0271192 0.0461557 -0.0392503 -0.0181443 0.0742536 -0.0469215 -0.0251093 -0.0368857 -0.0360855 
-0.0202131 -0.0699369 -0.0899809 -0.00327991 -0.0627693 -0.0540998 -0.0611428 -0.0199243 -0.0169755 
-0.0808332 -0.0314948 -0.023756 -0.0707435 -0.0103787 -0.0194978 0.051436 0.0692118 0.0135729 
0.0403671 0.0585583 0.010396 -0.0170624 0.0785808 -0.0554526 -0.0332428 -0.0567963 -0.010123 
-0.0432863 0.0779212 0.00137278 -0.0340306 0.0712666 0.00602359 0.0797835 -0.0843795 -0.0191528 
-0.00921827 0.00278691 -0.00222911 -0.059975 0.00751338 -0.00438601 -0.0907764 0.0185872 -0.00288584 
0.0498459 -0.0558123 -0.0127688 0.0409103 -0.0424721 -0.00967664 -0.0408469 -0.0426301 -0.0461379 
0.00744948 0.0832233 -0.00373074 -0.0126504 0.062263 -0.00582982 -0.00212598 0.119508 -0.00654833 
-0.0650102 -0.0171335 -0.0175351 0.0167675 -0.0174024 -4.33686e-05 -0.000922552 0.0698867 -0.0424463 
-0.00789053 0.0146883 -0.00194175 0.0350664 -0.038576 -0.00822193 -0.0510895 -0.0571329 -0.0601548 
-0.0524191 0.0380072 -0.0473062 -0.0303803 0.0197116 -0.0238695 -0.049905 0.0331215 -0.0401218 
0.0845099 -0.0619389 -0.00658848 0.0740962 -0.0554899 -0.0356089 -0.0481158 0.0292253 -0.0357566 
-0.0770893 -0.0851921 -0.00707305 -0.101766 -0.0731994 -0.0244777 -0.054356 -0.0661104 -0.0219789 
0.014689 0.0667301 -0.0340442 0.0122567 0.0645833 -0.0298271 0.0228532 0.0602062 -0.0308032 
-0.03332 0.0704542 -0.00496557 -0.033016 0.0744622 -0.000325448 -0.0340682 0.0519396 -0.00147001 
-0.0309513 -0.0864422 -0.0552999 -0.00915205 -0.0413467 -0.0281582 -0.0227962 -0.055988 -0.0382445 
-0.0299618 -0.0522722 -0.0460656 -0.0714775 -0.0201588 -0.0305557 0.0733907 -0.0309289 0.0165831 
0.0702966 -0.0398054 0.0187101 0.0847189 -0.00973082 0.016707 0.0684748 -0.0205272 0.0126202 
0.130391 -0.0363807 0.0330417 0.107506 -0.03621 0.0180878 -0.092898 0.0606323 -0.0321541 
0.0993118 0.00963009 0.0211893 0.0824166 -3.91786e-05 0.0151347 0.0720121 0.0130209 0.0146365 
0.00948301 0.0427382 -0.0142329 -0.0809541 -0.0571407 -0.0422043 -0.0611153 -0.0611401 -0.01444 
-0.0475492 -0.0721307 -0.028704 -0.0967247 -0.0956563 -0.0287735 -0.0370203 -0.0954029 -0.0387215 
-0.120151 -0.0989739 -0.013637 -0.111388 -0.0839705 -0.0329642 0.0298397 -0.101623 -0.0393342 
0.0333012 -0.0770446 -0.0200429 0.0232253 -0.0826558 -0.0304541 0.010383 -0.101523 -0.0520115 
0.0185947 -0.0936988 -0.030881 0.0561755 0.12304 0.0136098 -0.00567398 -0.0727839 -0.0223744 
0.0053059 -0.0592365 -0.00909093 0.0178464 -0.0825767 -0.000362729 0.0325156 -0.0780845 0.00982343 
0.0258398 -0.0552533 0.00190732 0.0691527 -0.0881852 0.0162636 0.0818452 0.0727024 0.00800394 
0.0807944 0.0915035 -0.00438058 0.0876466 0.0846297 0.0127686 0.064493 0.0764053 -0.0122756 
0.053961 0.0864166 0.0234779 0.0734054 0.0823049 0.0192491 0.0959274 0.0977069 0.0230093 
-0.0493751 -0.0560307 -0.00517483 0.0333788 -0.0543779 -0.00339904 0.0574306 -0.0867146 0.00505256 
0.0361056 0.0364362 -0.000135479 0.0336662 0.0469741 -0.00346209 0.046484 0.0517451 -0.00355891 
0.04431 0.0705356 -0.00415157 0.0554494 0.0554645 -0.0026465 -0.0413154 0.045424 -0.0461361 
-0.0533817 0.0589675 -0.0663964 -0.0473717 0.0708648 -0.0744318 -0.0606331 0.0872263 -0.088371 
0.0144886 -0.0874628 -0.0453072 0.112179 0.0701392 0.0151195 0.120904 0.0169067 0.016051 
0.0953598 0.0296419 0.011545 0.0321992 0.0235835 -0.0579873 0.0386001 0.0239046 -0.0985987 
0.0154691 0.0295438 -0.107953 -0.0364694 0.0627949 -0.00280218 0.120645 0.0342835 0.0186208 
0.0736857 -0.0598695 0.00508955 0.107334 0.0307274 0.0168232 0.0799622 0.037371 0.00648605 
0.0815761 0.0365043 0.00559422 0.0296783 0.10196 -0.0519491 0.0140188 0.0960651 -0.0516188 
0.00438403 0.115797 -0.0508879 -0.089357 -0.0204745 -0.0555743 -0.0796086 -0.0242203 -0.0499773 
-0.0853969 -0.0146175 -0.0572719 -0.115688 -0.0178145 -0.0558421 0.103285 -0.0498334 0.037352 
0.0797582 -0.0444344 0.0284186 0.114458 -0.0475907 0.0271175 0.0562098 -0.0068064 0.0218915 
0.0880416 -0.00652559 0.0107666 0.0699738 -0.00619053 -0.0091626 0.111724 -0.0549504 0.024375 
0.109608 -0.0482166 0.0240705 0.106381 -0.0401882 0.0267146 0.0283696 0.135822 -0.0299146 
0.0873742 0.0440913 0.00792374 0.0872955 0.0531737 -0.00324472 0.0898824 0.0796656 -0.00453968 
0.0787214 0.0390209 -0.00208601 -0.0724395 0.0333601 -0.0510779 0.0546221 0.0454549 -0.0381526 
0.0430189 0.0475333 -0.0403324 0.0436443 0.0575227 -0.0340637 0.116754 -0.0519646 0.033006 
0.106852 -0.0443235 0.0231748 0.114224 -0.0229043 0.0221841 0.0121366 0.0761873 -0.0539683 
0.00849238 0.0666278 -0.0362902 0.0314078 0.0834156 -0.0447313 -0.0148499 0.0815254 -0.0623363 
0.0739772 0.0440876 -0.0263286 0.06279 0.0410296 -0.0382934 0.0617453 0.0444609 -0.0234424 
0.0657956 -0.0792016 0.0140174 0.0607303 -0.0606924 0.0101209 0.0447673 -0.0735424 0.0126245 
0.0651397 -0.0777706 0.0232527 0.0500184 -0.0766577 0.0187786 0.0724429 -0.0722711 0.0209573 
0.0323476 0.0385005 -0.0149473 0.0570015 0.0443135 -0.016236 0.0491764 0.0513122 -0.0108635 
0.0524432 0.0553437 -0.0144048 0.0696979 0.0829887 -0.028942 0.0548369 0.0434752 -0.0153457 
0.0380728 0.0716737 -0.0230164 -0.0330342 -0.0423783 -0.0376745 -0.052107 -0.0399992 -0.0449652 
0.0549774 0.0769302 0.0125662 0.0287175 0.0487083 0.00738697 0.0404989 0.0631025 0.0125126 
-0.0706902 -0.029602 -0.0588544 -0.0518076 -0.0283099 -0.0413368 0.0603839 -0.0255109 -0.00987885 
0.0730249 -0.0182196 -0.0110775 0.0803755 -0.0164473 0.0196309 -0.0900031 -0.0397405 -0.0345229 
0.0132369 -0.0276716 -0.0111783 -0.0518197 -0.0379967 -0.037123 -0.039958 -0.0525414 -0.0388451 
0.0819034 -0.101904 0.0067622 0.0709272 -0.0713571 0.00870702 0.0481345 -0.0643077 0.00862457 
0.0457967 0.116641 0.000921065 -0.00860629 0.0238068 0.00253476 -0.0538771 -0.00835793 -0.0258411 
-0.0587874 -0.00699202 -0.0250537 -0.0904882 -0.0215325 -0.0368925 -0.0694628 -0.0691815 -0.0715625 
-0.0514889 -0.037607 -0.0396681 0.0166478 0.0751042 0.00318966 0.021279 0.0866599 -0.00757133 
-0.0557145 0.0259409 -0.0431095 0.00325995 0.0655163 -0.0401887 -0.00651657 0.0742933 -0.0453323 
-0.0713076 -0.0478985 -0.0496329 -0.00226002 -0.0948713 -0.0961597 -0.057668 0.0581593 -0.0278392 
-0.0682568 -0.0369251 -0.00429795 -0.0143918 -0.0728876 -0.0642738 0.0701758 0.0719759 0.0106027 
0.0977101 0.0876093 0.0134459 0.0447292 -0.0808961 -0.00193973 -0.047164 -0.0652607 -0.0575287 
0.0362132 -0.0969934 -0.0196611 -0.085079 -0.0333135 -0.0484258 -0.107203 -0.0398551 -0.0543005 
0.0295505 0.0497188 0.0096755 0.0679468 0.111251 0.00605502 0.0216385 0.0557893 -0.0309298 
0.0288648 0.106715 -0.0118984 -0.0807535 0.0337789 -0.0593356 -0.0842149 0.0411502 -0.0635108 
-0.0117506 0.0386779 0.00587604 0.00885706 0.0577595 0.00104341 -0.0797977 3.42075e-05 -0.0479888 