# vtk DataFile Version 5.1
vtk output
ASCII
DATASET UNSTRUCTURED_GRID
POINTS 2395 float
-0.885168 1.9154 -1.77636e-15 -2.81056 1.15368 -1.77636e-15 -1.13629 1.80116 -1.77636e-15 
-1.38289 1.69773 -1.77636e-15 -1.6007 1.63699 -1.77636e-15 -1.79974 1.50588 -1.77636e-15 
-1.97731 1.27977 -1.77636e-15 -2.11433 1.05377 -1.77636e-15 -2.17166 0.697113 -1.77636e-15 
-2.20058 0.364296 -1.77636e-15 -2.18696 0.0328118 -1.77636e-15 -2.13156 -0.324756 -1.77636e-15 
-2.07847 -0.699531 0 -1.97893 -1.08045 0 -1.79441 -1.41755 0 
-1.59721 -1.75018 0 -1.39748 -2.002 0 -1.15352 -2.2617 0 
-0.872768 -2.44005 0 -0.5717 -2.54196 0 -0.212593 -2.50913 0 
0.0553112 -2.3278 0 0.329904 -2.19437 0 0.600899 -2.00164 0 
0.884825 -1.84321 0 1.29306 -1.7727 0 1.51714 -1.58607 0 
1.70345 -1.44277 0 1.87102 -1.24427 0 2.06504 -1.02097 0 
2.11987 -0.752941 0 2.24777 -0.466419 -1.77636e-15 2.23208 -0.167146 -1.77636e-15 
2.16498 0.109912 -1.77636e-15 2.04665 0.334677 -1.77636e-15 1.88496 0.562682 -0.100448 
1.69128 0.753701 -0.0362898 1.52079 0.988812 -1.77636e-15 1.33779 1.24391 0 
1.10672 1.45955 -1.77636e-15 0.841145 1.66085 -1.77636e-15 0.589618 1.83464 -1.77636e-15 
0.298608 2.01684 -1.77636e-15 0.00917335 2.16281 -1.77636e-15 -0.304159 2.16292 -1.77636e-15 
-0.604008 2.05466 -1.77636e-15 -2.66567 1.52484 -1.77636e-15 -2.47587 1.81284 -1.77636e-15 
-2.25319 2.02885 -1.77636e-15 -2.048 2.29331 -1.77636e-15 -1.83131 2.46466 -1.77636e-15 
-1.60115 2.61903 -1.77636e-15 -1.34628 2.82309 -1.77636e-15 -1.0801 2.90915 -1.77636e-15 
-0.724832 2.89634 -1.77636e-15 -0.400444 2.88798 -1.77636e-15 -0.0724588 2.8638 -1.77636e-15 
0.250006 2.84039 -1.77636e-15 0.598601 2.76027 -1.77636e-15 0.906476 2.61736 -1.77636e-15 
1.24936 2.44728 -1.77636e-15 1.61957 2.25951 -1.77636e-15 2.04152 2.11076 -1.77636e-15 
2.40835 1.98195 -1.77636e-15 2.64382 1.80184 -1.77636e-15 2.80377 1.55596 -0.0363511 
2.92399 1.27461 -0.0267547 3.00939 0.965628 -0.0484151 3.0312 0.640375 -0.170524 
3.00533 0.330671 -0.00807767 2.9175 0.00789525 -0.0759264 2.83269 -0.29449 -0.0133362 
2.76486 -0.610451 -0.042205 2.67525 -0.926158 -0.0246057 2.54398 -1.20562 0 
2.36691 -1.4215 0 2.16681 -1.6345 0 1.96517 -1.8814 0 
1.78387 -2.10996 0 1.6095 -2.33378 0 1.40891 -2.55176 0 
1.18261 -2.7934 0 0.930054 -2.97734 0 0.638131 -3.20243 0 
0.325682 -3.42638 0 -0.0519027 -3.5829 0 -0.398762 -3.51466 0 
-0.727191 -3.40582 0 -1.05618 -3.32751 0 -1.3929 -3.22192 0 
-1.68279 -3.01165 0 -1.96203 -2.75457 0 -2.21082 -2.45274 0 
-2.41995 -2.12068 0 -2.60041 -1.76829 0 -2.73967 -1.40767 0 
-2.86119 -1.0559 0 -2.96934 -0.708043 0 -3.03154 -0.3615 -1.77636e-15 
-3.04076 -0.0109043 -1.77636e-15 -2.98261 0.360227 -1.77636e-15 -2.91172 0.755973 -1.77636e-15 
-1.08622 -2.60266 -1.31341 -1.07428 -2.62546 -0.982138 -1.26497 -2.47378 -1.13626 
0.245696 2.23874 -0.830691 0.0958576 2.20867 -0.366786 0.399036 2.07528 -0.47563 
-0.388323 -2.67933 -0.211264 -0.0986956 -2.5854 -0.213949 1.9738 0.547305 -0.470763 
1.8439 0.782557 -0.353714 -1.58421 -1.7049 -1.71035 -1.69773 -1.68339 -1.34403 
-1.68847 -1.45087 -1.59778 -1.49131 -1.92699 -1.54479 -2.15957 0.107757 -0.138534 
-2.11326 -0.305812 -0.191785 0.166905 -2.41827 -0.289568 0.50177 1.94042 -0.279208 
0.726917 1.79959 -0.31963 0.595476 1.92639 -0.586093 -2.16466 0.474033 -0.836817 
-2.16336 0.440757 -0.458066 -2.14906 0.743162 -0.570994 -2.16818 0.195464 -0.759548 
0.417111 -2.19319 -0.246273 0.664787 -2.02888 -0.21323 -0.641055 2.18404 -0.968452 
-0.469717 2.31587 -1.20611 -0.634916 2.22718 -1.30481 -1.26015 -2.44912 -0.841006 
0.00234807 -2.60783 -0.791122 0.163029 -2.52628 -0.866601 0.138263 -2.5361 -0.593157 
0.303601 -2.38434 -0.528012 1.70323 0.932685 -0.215655 1.60198 1.14368 -0.26615 
-2.03945 1.32648 -0.775135 -1.91055 1.5277 -0.946745 -2.00274 1.40064 -1.19214 
-0.592434 -2.79794 -0.764684 -0.827616 -2.74069 -0.618041 -0.78141 -2.81163 -0.922411 
-1.98227 1.4166 -0.540245 -1.98816 -1.02564 -0.415038 -1.93549 -1.2061 -0.210846 
-2.04279 -0.883208 -0.136991 2.07898 0.30921 -0.6421 2.01039 0.496892 -0.94154 
-1.88715 -1.30041 -0.483501 2.19283 -0.227875 -0.463791 2.17112 -0.456486 -0.55225 
-2.08435 -0.58887 -0.0896099 -1.5379 1.19655 -2.94046 -1.83758 1.07635 -2.59971 
-1.5258 1.37254 -2.66988 1.96294 0.756004 -1.74278 1.86527 0.954909 -1.72689 
1.85789 0.886755 -1.50878 -2.08702 -0.6678 -0.370059 2.17301 -0.0109653 -0.389713 
2.23922 -0.738651 -0.41083 0.650845 -2.08651 -0.524207 0.733144 -2.02475 -0.811279 
0.838452 -1.93037 -0.404734 -0.390267 2.23803 -0.378144 0.499885 -2.23758 -0.761731 
0.316549 -2.44503 -1.14415 0.0940574 -2.56005 -1.19743 -0.708079 0.213816 -4.53378 
-0.869443 0.285507 -4.34399 -0.670528 0.324381 -4.63055 0.224881 -2.46982 -1.84331 
0.0791469 -2.55819 -1.50656 -0.119826 -2.56331 -1.85468 1.9776 0.89495 -2.00393 
-1.3272 -2.35399 -1.42646 -1.13672 -2.5355 -1.67573 2.07188 0.646125 -2.07791 
2.04528 0.518447 -1.83966 1.65257 0.927337 -5.16724 1.80184 0.769409 -5.2085 
1.62576 0.86484 -5.37458 1.68987 -1.43015 -0.37039 1.91183 -1.21474 -0.33318 
1.76631 0.652046 -5.49235 2.09399 0.210832 -1.02098 2.03505 0.33806 -1.32859 
1.67257 1.17584 -1.02557 1.77643 1.01116 -1.20883 1.68747 1.19058 -1.35908 
-0.530971 2.2066 -0.640164 -0.772413 2.06586 -0.639115 -1.50436 -1.52287 -2.21044 
-1.38298 -1.79372 -2.29759 -1.45724 -1.76649 -2.03806 1.78682 0.994596 -0.859413 
2.12556 -0.550563 -0.880973 -1.4592 -1.51393 -2.59079 -1.5032 -1.92337 -1.88712 
-0.36543 2.33239 -0.931422 -2.11342 -0.471042 -0.55383 -2.10938 -0.559101 -0.907844 
-2.04245 -0.85477 -0.722289 -0.0525749 -2.62093 -0.535786 -2.12957 0.9702 -1.14976 
-2.14127 0.919031 -0.860814 -2.09015 1.15348 -0.987011 -0.837015 0.0119583 -4.36812 
2.13017 0.174262 -0.420436 -2.13595 0.926433 -1.54853 -2.16374 0.710804 -1.27703 
-2.13551 0.666205 -1.6424 1.99749 -0.852491 -1.08752 2.06906 -0.534284 -1.34754 
0.611576 -2.04287 -3.38652 0.569802 -2.06632 -3.0266 0.377076 -1.94123 -3.18983 
-1.43529 -2.1711 -1.45698 -1.38663 -2.12355 -1.80568 -1.36064 -2.31081 -1.6978 
-0.759017 -2.64019 -2.0437 -0.563071 -2.56307 -2.15866 -0.600212 -2.70485 -1.83541 
-0.191578 -2.73319 -0.902639 -1.53173 -1.94313 -1.21787 -1.4181 -2.2394 -1.07959 
-1.58191 -1.92175 -0.834677 -1.01071 -2.52042 -0.336668 -0.134624 2.33351 -0.644227 
1.273 -1.75917 -2.1309 1.36222 -1.59661 -1.99416 1.17641 -1.77792 -1.89539 
1.47417 -1.54868 -2.30775 -1.17884 1.87266 -0.409981 -0.919206 1.97699 -0.304436 
-1.01288 1.93089 -0.634904 -1.18852 1.8699 -0.747722 2.09537 -0.972094 -0.365623 
2.17847 -0.909662 -0.666668 -0.339369 -2.6599 -1.9427 -0.348598 -2.80752 -0.708981 
-0.0918127 1.20159 -4.6153 -0.173133 1.40834 -4.39016 0.0232073 1.32208 -4.64143 
0.120956 2.34024 -1.97532 0.36204 2.31453 -1.69635 0.526219 2.24486 -2.00084 
-1.27065 -2.39931 -0.496106 -1.46077 -2.07923 -0.312454 -1.43905 -2.22312 -0.657761 
-1.26661 -2.31476 -0.218874 -1.0996 -2.60382 -0.647332 -0.728895 2.11906 -0.279369 
-1.7728 -1.58627 -0.701477 -1.91193 -1.22804 -0.743072 -1.79556 -1.49269 -1.00794 
2.15421 0.0115134 -0.716132 1.39536 1.72604 -3.67194 1.13721 1.81229 -3.31516 
1.41905 1.63531 -3.41998 0.871392 -2.05094 -3.28229 1.07802 1.84063 -3.68501 
0.957689 2.01613 -3.35565 0.830078 2.1262 -3.01886 1.01675 1.96665 -2.97557 
-1.94192 -1.00031 -1.3077 -1.93429 -1.1215 -1.0323 -2.0172 -0.870231 -1.04432 
-1.60588 -1.94738 -0.546268 0.543716 2.19793 -1.6196 -0.265985 -2.72472 -0.430007 
-0.528016 -2.8034 -0.47624 1.8178 -1.00626 -2.43022 1.94088 -0.720411 -2.36879 
1.84676 -0.841688 -1.98609 2.09389 -0.029271 -1.85678 2.0912 0.0665448 -1.43321 
2.08764 -0.236875 -1.44283 1.79016 -1.42019 -0.734509 2.03224 -1.14861 -0.700183 
1.94275 -0.585346 -1.94431 -1.35797 1.80759 -0.517209 -2.17996 0.680118 -0.140423 
-2.17393 0.408805 -0.104778 -1.84198 -1.30569 -1.31981 0.898711 2.16159 -2.76923 
-1.67615 -1.73465 -0.292613 -0.444376 2.30069 -2.18556 -0.699165 2.13926 -2.05289 
-0.6924 2.17619 -1.84903 -2.05181 -0.691551 -1.27318 -2.1275 -0.359183 -1.38332 
-1.97299 -0.623181 -1.76699 -2.03182 1.42811 -0.279409 -2.08396 1.23301 -0.352614 
-0.716684 -2.67553 -0.259781 -0.640312 2.11916 -2.40636 1.95502 -1.07363 -3.10303 
1.76975 -1.38061 -3.16755 1.91712 -1.29518 -3.50835 0.748183 2.05229 -1.7118 
1.01539 1.9056 -1.48302 1.09638 1.94873 -1.82768 1.25035 1.69711 -1.53714 
1.50262 -1.36575 -1.80523 1.6477 -1.20695 -1.5941 1.4388 -1.44148 -1.45653 
1.63549 -1.20368 -1.22758 -2.1957 0.462878 -1.16647 -2.16148 0.724537 -0.960088 
-1.11941 0.496639 -3.97873 -1.00385 0.133745 -4.17025 -1.25826 0.160948 -3.85408 
-1.80931 -1.4962 -0.370557 -0.838674 0.458353 -4.32325 1.90597 -0.84523 -1.70788 
1.77564 -1.03334 -1.74189 1.67808 -1.11726 -2.03555 1.69087 -1.35053 -2.77933 
-1.64183 -1.2168 -2.112 -1.77053 -0.857487 -2.11986 -1.61301 -0.993691 -2.42237 
-1.68719 1.72796 -0.386913 -1.85109 1.58226 -0.633344 -1.84759 1.60858 -0.212027 
-1.16348 -0.69722 -3.69159 -1.24447 -0.440662 -3.74104 -1.06208 -0.46319 -3.96118 
-1.2768 -0.73923 -3.4415 -1.20215 -2.33276 -2.02599 -1.72139 -1.76395 -0.531766 
-1.99787 0.386431 -2.25065 -2.00097 0.646687 -2.47892 -1.89974 0.313768 -2.63031 
-2.06984 0.637112 -2.1817 -1.04086 1.86842 -2.34234 -1.19335 1.83567 -1.89185 
-0.901251 1.94726 -2.19158 -1.41739 1.67484 -2.06689 -0.727003 2.01668 -2.58433 
-0.82062 1.89817 -2.85892 -2.06425 1.19306 -1.37994 -0.045222 2.37948 -1.04603 
-1.26122 1.91414 -1.44141 -1.45607 1.73593 -1.66126 -0.949392 2.05647 -1.69874 
-1.66079 1.63465 -1.76838 -1.59482 1.70716 -1.40668 -1.85635 1.56252 -1.43828 
-1.4999 1.75055 -1.10918 -0.879999 -2.67963 -1.78892 -1.02705 -2.51411 -2.08337 
0.939067 -1.82948 -0.580997 1.13777 -1.6536 -0.731524 1.33438 -1.76634 -0.305553 
0.971525 -1.83612 -0.927302 -0.361263 1.1399 -4.45183 2.17887 -0.264595 -0.826469 
-0.909258 2.03721 -1.0184 -0.878712 -2.78717 -1.22359 -0.137668 2.26236 -0.270136 
1.57322 -1.33568 -2.07688 -0.654914 1.97949 -3.11598 -0.433577 2.09045 -3.32898 
-0.559482 1.90982 -3.43447 -0.672702 -2.78929 -1.4838 -0.531445 -2.83821 -1.07902 
[...]
POINT_DATA 2395
FIELD FieldData 1
Nodal_area 3 2395 float
0 0 0 0 0 0 0 0 0 
0 0 0 0 0 0 0 0 0 
0 0 0 0 0 0 0 0 0 
0 0 0 0 0 0 0 0 0 
0 0 0 0 0 0 0 0 0 
0 0 0 0 0 0 0 0 0 
0 0 0 0 0 0 0 0 0 
0 0 0 0 0 0 0 0 0 
0 0 0 0 0 0 0 0 0 
0 0 0 0 0 0 0 0 0 
0 0 0 0 0 0 0 0 0 
0 0 0 0 0 0 0 0 0 
0 0 0 0 0 0 0 0 0 
0 0 0 0 0 0 0 0 0 
0 0 0 0 0 0 0 0 0 
0 0 0 0 0 0 0 0 0 
0 0 0 0 0 0 0 0 0 
0 0 0 0 0 0 0 0 0 
0 0 0 0 0 0 0 0 0 
0 0 0 0 0 0 0 0 0 
0 0 0 0 0 0 0 0 0 
0 0 0 0 0 0 0 0 0 
0 0 0 0 0 0 0 0 0 
0 0 0 0 0 0 0 0 0 
0 0 0 0 0 0 0 0 0 
0 0 0 0 0 0 0 0 0 
0 0 0 0 0 0 0 0 0 
0 0 0 0 0 0 0 0 0 
0 0 0 0 0 0 0 0 0 
0 0 0 0 0 0 0 0 0 
0 0 0 0 0 0 0 0 0 
0 0 0 0 0 0 0 0 0 
0 0 0 0 0 0 0 0 0 
0 0 0 0 0 0 0 0 0 
-0.0560722 -0.0639427 -0.00538805 -0.0620581 -0.0848857 0.00424521 -0.0494249 -0.0455395 -0.00155791 
0.0623146 0.132112 0.0231167 0.0236143 0.0599826 0.0119198 0.0380428 0.0541891 0.0104726 
0.00479236 -0.0343715 0.0145712 0.0190509 -0.0348038 0.00902526 0.0504126 0.0196157 0.00393335 
0.0368761 0.0161093 0.00940452 -0.080429 -0.0329945 -0.0164168 -0.104376 -0.0493372 -0.0212609 
-0.0815117 -0.0324753 -0.0181936 -0.0784649 -0.0377725 -0.00957366 -0.0449657 -0.00355418 -0.00102839 
-0.0640899 -0.00578232 0.00164339 0.0304206 -0.0425799 0.0124358 0.0144656 0.0192067 0.00353894 
0.029753 0.0460357 0.00661855 0.0478023 0.0650403 0.0114852 -0.0908633 0.00351765 0.00439694 
-0.107458 -0.000255588 -0.00153265 -0.120693 0.00588278 -0.00305004 -0.10382 -0.00200549 0.00601067 
0.0191461 -0.0256749 0.0089395 0.0202466 -0.0274454 0.00571654 -0.0456871 0.0798694 0.0101228 
-0.0288078 0.0572236 0.00593644 -0.0466148 0.0730541 0.00281934 -0.0660913 -0.0580856 0.00349751 
0.0212265 -0.0390977 0.00419241 0.0575172 -0.0780855 0.00518484 0.0259191 -0.0403962 0.00665459 
0.0492998 -0.0588495 0.0111997 0.0197092 0.0110445 0.00890378 0.0382526 0.0334941 0.0128529 
-0.0794683 0.0346184 -0.000732135 -0.0695962 0.0693443 -0.00125268 -0.0749848 0.03926 -0.00339481 
-0.00568308 -0.05965 0.00556803 -0.0448243 -0.0993498 0.021455 -0.0227363 -0.066441 0.00701347 
-0.0580583 0.0409277 -0.00338123 -0.0921597 -0.0295041 -0.00193071 -0.0352926 -0.0127857 -0.00137269 
-0.0418595 -0.0104354 -0.0006264 0.0642511 0.0202644 -0.00142344 0.115228 0.0405695 -0.00346009 
-0.0622853 -0.023966 -0.001285 0.0413699 0.00195122 -0.00179777 0.0457665 -0.000956158 -0.00494495 
-0.0277092 -0.0032695 0.00118396 -0.0653851 0.0536803 -0.0495802 -0.139996 0.0666625 -0.066691 
-0.0520393 0.0584058 -0.0376496 0.0598269 0.0211283 0.0132873 0.0400417 0.0191333 0.0103291 
0.0562595 0.0263076 0.00606834 -0.0970401 -0.0174137 0.000788467 0.02204 0.00354475 -0.00102528 
0.0503388 -0.00384805 -0.00661787 0.0409576 -0.0491992 0.00456528 0.074119 -0.080828 0.010187 
0.0304394 -0.0451585 -0.00427104 -0.0143127 0.0511404 0.0074908 0.0743068 -0.0881939 0.0121335 
0.0577648 -0.0860827 0.00360654 0.0310831 -0.0522359 -0.00366847 -0.0480513 0.000159358 -0.030213 
-0.0354686 0.0013227 -0.0259642 -0.0607787 0.010464 -0.0396273 0.0280365 -0.072219 -0.0153215 
0.0540358 -0.11962 -0.011118 0.0325538 -0.0910863 -0.0221568 0.0550968 0.0209204 0.0143092 
-0.0651986 -0.0535102 -0.00428698 -0.0734189 -0.0829249 -0.0166075 0.0809358 0.0225527 0.0179315 
0.0530592 0.0146174 0.0110372 0.0349619 0.0547212 -0.0332564 0.0477211 0.0620846 -0.0336748 
0.0260115 0.0403593 -0.0288582 0.0335831 -0.0512675 -0.00599431 0.0446087 -0.0401637 0.00886073 
0.0447745 0.0662803 -0.0502413 0.104856 0.0243093 -0.00656198 0.0971642 0.0269616 0.002181 
0.0661802 0.0465251 0.00318387 0.0602245 0.032575 0.00218914 0.0524915 0.0280054 0.00725157 
-0.0379989 0.0740307 0.00541589 -0.0495097 0.0833645 0.00415526 -0.0830882 -0.0328028 -0.0220145 
-0.0701056 -0.035067 -0.0228218 -0.0696873 -0.0266758 -0.0247222 0.0797538 0.0476917 -0.00198467 
0.13223 -0.015307 -0.0272972 -0.105063 -0.0524148 -0.0541898 -0.0542434 -0.0218472 -0.0118555 
-0.0295495 0.0960915 0.012837 -0.107437 -0.0136938 0.00320797 -0.100312 -0.0210094 -0.000861057 
-0.124984 -0.0345729 -0.00261486 0.0445417 -0.0765653 0.0120776 -0.0797167 0.0151454 -0.000952672 
-0.0565976 0.00770611 -9.3414e-05 -0.078568 0.021722 -0.00202345 -0.0662116 -0.00466566 -0.0477318 
0.022625 0.00564529 -0.00126771 -0.0890207 0.0162754 -0.00811292 -0.0877695 0.00874829 -0.00373365 
-0.0855953 0.00838512 -0.00934666 0.111199 -0.0568111 -0.0393164 0.10503 -0.023962 -0.0165844 
-0.0266721 -0.104901 0.0057363 -0.0122965 -0.0801381 -0.00398438 -0.0234261 -0.0861144 -0.0123364 
-0.0728516 -0.0281774 -0.00685322 -0.0713337 -0.0333545 -0.0167379 -0.05109 -0.0342092 -0.0118098 
-0.00967611 -0.0538294 -0.0258644 0.00886193 -0.0682564 -0.0446738 0.00252863 -0.0828552 -0.0224656 
0.0322627 -0.0751737 0.00248755 -0.0889124 -0.0475691 -0.00952578 -0.108459 -0.06005 -0.00400105 
-0.106558 -0.058447 -0.00863893 -0.0339201 -0.0527836 0.0210212 0.0119748 0.11921 0.0196778 
0.0475046 -0.0481672 0.00669211 0.0657907 -0.0508982 0.0103827 0.0696243 -0.0662772 0.00574996 
0.081696 -0.0645863 0.0108073 -0.0141421 0.039952 -0.0012938 -0.0206975 0.0371913 -0.000763405 
-0.0302323 0.0641389 0.00390031 -0.0341704 0.0770003 0.00332608 0.0380646 -0.0249681 0.00637081 
0.0852257 -0.0263052 -0.020548 0.0168308 -0.0621751 -0.023276 0.021763 -0.0770632 0.00522264 
-0.0388082 0.0407145 -0.0463579 -0.0378216 0.0428921 -0.0442844 -0.0297925 0.0531014 -0.0508349 
0.0248729 0.122555 -0.00307151 0.0276904 0.0845808 0.00350336 0.051173 0.111258 0.00905349 
-0.0645182 -0.0617162 0.017599 -0.0532775 -0.0372557 0.0128987 -0.0894721 -0.0596105 0.00471046 
-0.0200441 -0.0208115 0.00663917 -0.0435554 -0.0593902 0.0126074 -0.0224565 0.0428169 -0.000760913 
-0.0993224 -0.0420417 -0.00341084 -0.100887 -0.037286 -0.00343943 -0.0982136 -0.0365226 -0.00649214 
0.102831 0.0181323 -0.00633411 0.0351536 0.06137 -0.00475161 0.0575856 0.0884446 -0.00890398 
0.0581566 0.0666851 -0.00523099 0.0117528 -0.118224 0.0100371 0.0397748 0.0835493 -0.0234047 
0.0592438 0.0822292 -0.0142559 0.0310389 0.0637604 -0.0062286 0.0625653 0.0899798 -0.0191607 
-0.0746088 -0.0242044 -0.010352 -0.0934266 -0.0328817 -0.00728777 -0.0698916 -0.0213579 -0.00571261 
-0.0569095 -0.0358523 0.00551006 0.0470245 0.0692081 0.0137003 0.0214629 -0.0545598 0.013803 
-0.00421202 -0.0746861 0.0176923 0.104461 -0.0591626 0.0169619 0.103716 -0.0385403 0.0142108 
0.0891595 -0.045037 0.000732586 0.140381 -0.0163391 0.00826996 0.115319 0.0097511 -0.00239987 
0.0929241 -0.00701399 -0.00937514 0.0775119 -0.115626 -0.0320256 0.0910797 -0.0699722 -0.026639 
0.0939999 -0.0294378 -0.000647993 -0.0181805 0.051367 -0.00151283 -0.0579142 0.000916239 -0.00333811 
-0.0496005 -0.00188914 -0.00164227 -0.095665 -0.0363643 -0.0160988 0.0393479 0.0809253 -0.0056219 
-0.0309894 -0.0183063 0.00799601 -0.0481838 0.0787883 -0.0111674 -0.0453416 0.0623941 -0.0130491 
-0.0385371 0.0621281 -0.00408088 -0.118805 -0.0345457 -0.0159192 -0.116531 -0.023266 -0.0182596 
-0.169606 -0.048843 -0.0472336 -0.0202986 0.0131157 -0.00500908 -0.0591139 0.0202072 -0.00617585 
-0.0165521 -0.0447739 0.0173524 -0.0531789 0.0674028 -0.00959068 0.130377 -0.0638014 0.032188 
0.0813634 -0.0488416 0.0227427 0.0859188 -0.0452678 0.020943 0.0570487 0.109435 0.0186462 
0.0668457 0.10979 0.0316788 0.0657423 0.111873 0.0246006 0.0629693 0.0753211 0.0205955 
0.073882 -0.0520945 0.00347302 0.0797273 -0.0638039 -0.00101401 0.0758555 -0.06296 0.00473045 
0.0873405 -0.0797173 -0.0231801 -0.0829092 0.00480462 -0.000435076 -0.0798979 0.00703271 0.00197138 
-0.076511 0.0175114 -0.0577269 -0.0909987 0.00273236 -0.0729096 -0.0825398 0.0025979 -0.0559665 
-0.0453987 -0.0180156 0.00176198 -0.0872343 0.0227089 -0.0644623 0.0655132 -0.0306346 -0.00932536 
0.0539865 -0.0372965 -0.00460185 0.0968775 -0.0628946 0.00490367 0.0964795 -0.0619619 0.0270512 
-0.104387 -0.031166 -0.0336101 -0.110387 -0.0393373 -0.0366648 -0.109058 -0.0334674 -0.0352243 
-0.0230678 0.040308 -0.000316593 -0.0476522 0.050175 -0.00168391 -0.0289072 0.0291964 -0.00295659 
-0.0635771 -0.0326575 -0.0445592 -0.0708206 -0.0241339 -0.0455911 -0.0636841 -0.0219034 -0.050335 
-0.0959042 -0.0448032 -0.0551615 -0.086608 -0.0661749 -0.0340343 -0.0517854 -0.0253365 8.12727e-05 
-0.0930142 -0.0162048 -0.0279083 -0.11341 0.00991887 -0.0430757 -0.116697 -0.0138281 -0.0455948 
-0.0718345 0.00397835 -0.0176272 -0.0898014 0.131365 -0.0335741 -0.0680396 0.11106 -0.0238886 
-0.0611292 0.0912395 -0.0178803 -0.0661002 0.104928 -0.0254312 -0.0584023 0.075204 -0.0104594 
-0.0757894 0.0751946 -0.0256266 -0.088651 0.0282942 -0.0054063 0.0277886 0.128837 0.0152754 
-0.0627769 0.111655 -0.00672715 -0.0387772 0.0724352 -0.0151667 -0.0623678 0.106482 -0.0162104 
-0.0497301 0.0838625 -0.0214494 -0.0442098 0.080572 -0.00578632 -0.0709392 0.0848681 -0.00951922 
-0.0352168 0.0795536 0.00290681 -0.0302732 -0.0784081 -0.0185356 -0.0434829 -0.0671754 -0.0314294 
0.0524364 -0.0811109 -0.0194839 0.0320644 -0.0898293 -0.00897253 0.0307895 -0.0592013 -0.0243806 
0.0647472 -0.0726083 0.0130388 -0.0519139 0.0468312 -0.0520434 0.0844336 -0.00219254 -0.00757416 
-0.0689426 0.125418 0.0111223 -0.0347291 -0.0818568 -0.00502432 0.00169587 0.0303149 0.00577951 
0.0621804 -0.0380509 0.0098658 -0.0441929 0.0393295 -0.0195257 -0.0338414 0.0552085 -0.0278241 
-0.0527922 0.0466222 -0.0348136 -0.00506324 -0.116586 -0.0217027 0.00670229 -0.107859 -0.00306244 
-0.0600766 0.079614 -0.0206951 -0.0336809 0.0309353 -0.0182752 -0.049645 0.0376349 -0.031384 
-0.0411763 0.037231 -0.0293692 0.0337571 -0.0426443 0.00867492 -0.0908169 -0.0310713 -0.0294117 
-0.0683251 0.0995435 -0.038059 -0.0716601 0.0795966 -0.0369026 -0.123206 0.0356686 -0.0314566 
-0.0686 0.0117218 -0.0102665 -0.0591281 0.00970266 -0.0111976 -0.102023 0.0383405 -0.0206115 
-0.0590166 0.0506742 -0.041213 0.0591321 -0.0632651 0.0146703 0.0772957 -0.0918584 0.0129507 
-0.0737062 0.0664859 -0.0264308 -0.0610985 0.0819038 -0.0273688 -0.0622812 0.0339119 -0.00882992 
0.0250942 -0.0884651 -0.0115522 0.0341803 -0.112296 -0.0216981 0.0286287 -0.059098 -0.00999997 
0.093187 0.00730817 -0.00989688 0.0347721 0.056953 0.00856118 0.0623169 0.0294957 0.0138827 
0.0763174 0.042049 0.0191997 0.0295539 0.0152643 0.00341217 0.0645933 -0.0899932 0.00147579 
0.0520428 -0.0608341 0.00752821 0.0315968 -0.0575439 -0.00207166 -0.112397 -0.00908387 0.00049593 
-0.0853206 -0.00313511 -0.00914031 -0.0674613 -0.0072172 -0.0110745 -0.0858212 0.0490855 -0.0726475 
-0.0732216 0.0408632 -0.0555581 -0.0936426 0.0234746 -0.0614387 -0.0755905 0.0192784 -0.050372 
-0.0649233 -0.000157201 0.00338654 -0.0651628 0.0630876 -0.0568115 0.0562356 0.0863774 0.0133041 
0.0643393 0.0425678 0.0132599 -0.0923022 0.00331416 -0.0512527 -0.100255 -0.00704877 -0.0506711 
-0.114782 -0.0226097 -0.0428828 -0.124216 -0.0231621 -0.0409244 0.0987298 0.0417459 0.00378042 
0.0728067 0.0449245 0.0133868 -0.104316 -0.0281729 -0.0383439 -0.0998342 -0.0217832 -0.0344129 
-0.124086 -0.0341027 -0.0467756 -0.0871692 -0.025138 -0.0311154 -0.101107 -0.0336087 -0.0386546 
-0.0920874 -0.0589238 -0.0626525 -0.0785174 -0.0535365 -0.0598718 -0.0489174 -0.0565998 -0.0613777 
-0.0366089 0.0511866 -0.0457659 -0.048459 0.0432947 -0.0434648 -0.0232032 0.0599272 -0.0487191 
-0.042611 0.0330431 -0.0318439 -0.0437136 0.0309554 -0.0299579 0.0383282 0.046899 0.0104493 
-0.0816795 -0.0144829 -0.00163631 -0.124735 -0.0104398 0.0073935 -0.043715 0.0902821 0.00900651 
-0.00983043 0.0439829 0.00016361 -0.0229121 0.0693865 -0.00168217 -0.0392702 0.0771439 -0.00551728 
-0.0616578 0.0464762 -0.0419328 -0.0440005 -0.0273655 -0.0109385 -0.0445295 -0.0168659 -0.0166111 
-0.0433098 -0.018038 -0.0188107 -0.106003 -0.0512002 -0.0605805 -0.0841688 -0.0362801 -0.0438855 
-0.0906986 -0.0505268 -0.0585622 -0.077971 -0.0671213 -0.0455288 -0.0564449 -0.040299 -0.033992 
-0.0346816 -0.0331388 -0.0296824 -0.0543605 -0.0289856 -0.0426304 -0.0479446 -0.0358666 -0.0450581 
-0.0250471 0.0717567 -0.0539875 -0.0201106 0.0679969 -0.0537607 -0.0554708 -0.0640091 -0.0417205 
-0.0606572 -0.0771812 -0.0594019 -0.052682 0.0358751 -0.0369354 -0.0408504 0.0286897 -0.0282014 
-0.0485526 0.0335645 -0.0340193 0.0296942 0.1228 0.00262596 -0.00993241 0.0967488 0.00610352 
-0.0835539 0.0108201 -0.0432427 -0.0293775 0.0417561 -0.0219475 -0.0322202 0.0419315 -0.025586 
-0.0088284 0.0475046 -0.0264678 -0.0182763 0.0724022 -0.0268511 -0.0247412 0.0588208 -0.0357621 
-0.061369 0.0436091 -0.038738 -0.0506242 0.0327511 -0.0312524 -0.0460659 0.0527169 -0.0438974 
-0.0513164 -0.0723151 -0.00376992 -0.0632561 -0.0704864 -0.000948062 -0.0332259 -0.0450001 -0.0101543 
-0.0660123 -0.0724297 -0.00362951 -0.0549295 -0.0775244 -0.0166975 -0.0256847 -0.0429898 -0.0342625 
0.103507 0.0443219 -0.00040675 0.0587383 0.125618 0.0168835 0.0811007 0.123281 0.0277078 
-0.0707508 -0.0267168 -0.0175707 -0.0706177 -0.0226546 -0.0164431 -0.0259549 -0.0727549 -0.0372835 
-0.0438975 -0.0889877 -0.000345615 -0.0811034 -0.0225066 -0.0271257 -0.107106 -0.0249904 -0.0350174 
-0.0887283 -0.0282061 -0.0321912 -0.0783273 -0.00646089 0.0025986 -0.105056 0.00054644 -0.0103851 
-0.111059 -0.00706545 -0.0217373 -0.102913 -0.0177022 -0.0257203 0.0651738 -0.0593249 0.0109608 
0.0466526 -0.0673088 -0.00498857 0.108832 0.042111 0.0172121 0.0925139 0.025544 0.0157774 
-0.0992793 -0.00486377 0.00138462 -0.0419896 0.0485986 -0.0279418 -0.11195 -0.0140003 -0.021518 
-0.0274379 0.0442579 -0.038003 -0.0188075 0.0714124 -0.0457087 -0.0229113 -0.0354418 -0.0354823 
-0.0145891 -0.0668873 -0.0875458 -0.000592308 -0.0602285 -0.0524987 -0.0591618 -0.0192402 -0.0161905 
-0.0786535 -0.0307063 -0.0226236 -0.07023 -0.0101508 -0.0191644 0.0517941 0.0647676 0.0137408 
0.0399307 0.0553739 0.0105704 -0.0181307 0.0745013 -0.0526702 -0.030609 -0.0554541 -0.00903205 
-0.0407629 0.0741714 0.00156865 -0.0308511 0.0684394 0.00609559 0.0744923 -0.084789 -0.0219426 
-0.00794175 0.00208057 -0.00312638 -0.0587437 0.00673827 -0.00534674 -0.0897963 0.0181046 -0.00332483 
0.0471779 -0.0554661 -0.0143525 0.0383511 -0.0418634 -0.0111514 -0.0363333 -0.0411406 -0.0439298 
0.00790391 0.0784711 -0.00164931 -0.0122654 0.0574625 -0.00468993 -0.00117932 0.113166 -0.00485999 
-0.0625313 -0.0162995 -0.016044 0.0158476 -0.016766 -4.46436e-05 -0.00153927 0.0671002 -0.0406034 
-0.00714689 0.0140452 -0.00176854 0.0326554 -0.0380943 -0.00957306 -0.0476734 -0.0575836 -0.05853 
-0.0496173 0.0371308 -0.0440757 -0.0283838 0.0200529 -0.0219793 -0.0477087 0.0324206 -0.0379374 
0.0778494 -0.0640394 -0.00612196 0.0697992 -0.0570454 -0.0398814 -0.0459271 0.0299237 -0.0337691 
-0.0763508 -0.0844903 -0.00613386 -0.0998963 -0.0717215 -0.0223615 -0.0550338 -0.0671128 -0.0200537 
0.0142243 0.0649158 -0.0318736 0.0117205 0.0624797 -0.0280449 0.0220171 0.0579963 -0.0290232 
-0.0328278 0.0655163 -0.00419146 -0.0326261 0.0705269 0.000342781 -0.0337897 0.0496438 -0.000984784 
-0.0288173 -0.0830384 -0.0542874 -0.00309478 -0.0387838 -0.0278371 -0.0164878 -0.0538529 -0.036562 
-0.0218252 -0.0512933 -0.0437053 -0.0696458 -0.0197758 -0.028964 0.0688442 -0.0299011 0.0152986 
0.0654761 -0.0376333 0.0174083 0.0829108 -0.0103189 0.0161067 0.0652194 -0.0215534 0.0118942 
0.126605 -0.0375468 0.0325801 0.104714 -0.0370667 0.0177355 -0.0904541 0.0601601 -0.0310107 
0.0952666 0.00955486 0.0206565 0.0806389 -0.000194725 0.0145072 0.0690641 0.013203 0.013678 
0.00848954 0.0409143 -0.0125386 -0.0804091 -0.0567755 -0.0402448 -0.0603258 -0.0597353 -0.0132987 
-0.0446565 -0.0716206 -0.0263289 -0.0916748 -0.0945793 -0.0264344 -0.0364862 -0.0937143 -0.0377452 
-0.118095 -0.0965268 -0.0109087 -0.111502 -0.0831017 -0.0310936 0.0315344 -0.0962143 -0.0376592 
0.0340685 -0.0724359 -0.0193477 0.0249563 -0.0783601 -0.0293193 0.0119285 -0.0960536 -0.0513198 
0.0181583 -0.0885033 -0.0299072 0.0559518 0.119052 0.0157174 -0.00629536 -0.0679487 -0.0214863 
0.00433912 -0.0557905 -0.00827861 0.0166124 -0.0797822 0.000516471 0.0310596 -0.0741718 0.0101353 
0.0244353 -0.0523192 0.0025086 0.066453 -0.0828318 0.0169526 0.0779811 0.0691561 0.0087357 
0.0796846 0.0890098 -0.00340788 0.0856292 0.0807819 0.0134236 0.0604446 0.0734835 -0.0112118 
0.0537099 0.0841932 0.0248513 0.0725971 0.0767242 0.0201207 0.0929757 0.0947068 0.0229797 
-0.0487172 -0.0555058 -0.00351802 0.0338855 -0.0491677 -0.00264073 0.0568781 -0.082968 0.00585441 
0.0365448 0.0338409 0.00129679 0.0342766 0.0445536 -0.00189431 0.0471006 0.0481988 -0.003132 
0.0447522 0.0667959 -0.00323155 0.0551677 0.0528148 -0.000908091 -0.0394605 0.0430762 -0.0418764 
-0.0522938 0.0574601 -0.0620108 -0.0477897 0.0680471 -0.0690843 -0.0614086 0.0843245 -0.0826807 
0.0165977 -0.0838185 -0.044444 0.107334 0.0693265 0.015185 0.117669 0.0170038 0.0143256 
0.0933456 0.0303115 0.0107112 0.0323164 0.0235284 -0.0572459 0.0388067 0.0240426 -0.0979683 
0.0157841 0.028897 -0.106809 -0.0349786 0.0616349 -0.00302478 0.11659 0.0345474 0.0193765 
0.0710004 -0.0575099 0.00531157 0.103841 0.0305574 0.0182997 0.0761162 0.0371504 0.00799811 
0.07866 0.0362978 0.00687881 0.0303251 0.0985847 -0.0505124 0.0139018 0.0925438 -0.0492404 
0.00433688 0.112408 -0.0492302 -0.0873632 -0.0209838 -0.0530311 -0.0762944 -0.0239321 -0.0477947 
-0.0827811 -0.0145811 -0.0558177 -0.112995 -0.0178842 -0.0522696 0.0979873 -0.0509154 0.0384083 
0.075433 -0.0461177 0.0295141 0.109327 -0.0497223 0.02798 0.0341916 -0.00417401 0.0100081 
0.0849527 -0.00732136 0.011382 0.0680335 -0.00664428 -0.00972956 0.104551 -0.0556682 0.0227557 
0.102485 -0.0486044 0.0226311 0.0993239 -0.03951 0.0256443 0.0294275 0.130789 -0.0268898 
0.0855299 0.0427028 0.0103653 0.0832447 0.0531025 -0.00137228 0.0851524 0.076664 -0.00165042 
0.0762098 0.0375524 -0.00147742 -0.0685342 0.0344366 -0.0463938 0.0539192 0.0451211 -0.0379515 
0.0423771 0.0472573 -0.0400342 0.0429329 0.0574228 -0.0339706 0.111791 -0.0527167 0.0327865 
0.102607 -0.0451992 0.0224567 0.109339 -0.0236445 0.0222017 0.0120749 0.0752098 -0.0527226 
0.00766526 0.0650049 -0.0339902 0.0307164 0.0825679 -0.043714 -0.0155604 0.0797864 -0.0598433 
0.0734598 0.0437217 -0.0262791 0.0627243 0.0408855 -0.0383619 0.0601182 0.043957 -0.0231926 
0.065299 -0.0753568 0.0126939 0.0601494 -0.0575993 0.00853141 0.0441871 -0.0702346 0.0110664 
0.0646418 -0.0743518 0.0226851 0.0510372 -0.0713461 0.0200097 0.0727467 -0.067148 0.022478 
0.0295459 0.0373974 -0.0135397 0.0546969 0.0419779 -0.0143587 0.0456444 0.0492108 -0.00857971 
0.0502335 0.0523451 -0.0120974 0.0684316 0.0827159 -0.0288055 0.0531124 0.0430233 -0.0149338 
0.0358534 0.0696023 -0.0204244 -0.0292229 -0.0415839 -0.0377219 -0.0494082 -0.0408232 -0.0436707 
0.0519373 0.0752142 0.0124714 0.0271587 0.0472599 0.00731607 0.0384846 0.0620165 0.0125303 
-0.0682514 -0.0288121 -0.05835 -0.0513446 -0.027977 -0.0413356 0.0566825 -0.0268071 -0.0101931 
0.0701592 -0.018731 -0.0125274 0.0571685 -0.0144454 0.00686159 -0.0870983 -0.0394585 -0.0327124 
0.0118359 -0.0283749 -0.0122545 -0.0500511 -0.0377815 -0.035838 -0.0371171 -0.0510412 -0.0369731 
0.0805493 -0.0970959 0.00800621 0.0691595 -0.0670067 0.00969518 0.0463384 -0.0606306 0.0095565 
0.0464347 0.111444 0.00303529 -0.00760122 0.0228397 0.00253339 -0.0523497 -0.00677275 -0.0238699 
-0.0569928 -0.00517701 -0.0231798 -0.0895951 -0.0206192 -0.0352226 -0.0651077 -0.0691043 -0.0708796 
-0.0485167 -0.0373577 -0.0378333 0.015708 0.0720619 0.00494966 0.0215769 0.0829379 -0.00541955 
-0.0525539 0.0273406 -0.0403862 0.00246804 0.0640187 -0.0385604 -0.0072593 0.071885 -0.0418455 
-0.0688124 -0.0478852 -0.0493918 0.00284954 -0.0882157 -0.0934112 -0.0556947 0.057768 -0.0266423 
-0.0657915 -0.0367048 -0.00349075 -0.0103286 -0.0704428 -0.0640562 0.0676327 0.0710472 0.0102992 
0.0921132 0.0867994 0.0128322 0.0438858 -0.0769111 9.64745e-05 -0.0387841 -0.0636706 -0.055153 
0.0356134 -0.0932215 -0.0187232 -0.0822571 -0.0328064 -0.0473066 -0.10491 -0.0396877 -0.052628 
0.0288338 0.0488887 0.00987586 0.0677267 0.106044 0.00666722 0.020486 0.054077 -0.0292386 
0.0297572 0.102557 -0.00958968 -0.0781349 0.0343426 -0.056447 -0.0812593 0.0419112 -0.061128 
-0.0116389 0.0365315 0.00570788 0.0087718 0.0549411 0.00284923 -0.0775859 -9.21194e-06 -0.0458657 