# vtk DataFile Version 5.1
vtk output
ASCII
DATASET UNSTRUCTURED_GRID
POINTS 2395 float
-0.839755 1.87595 -1.77636e-15 -2.75569 1.12716 -1.77636e-15 -1.08503 1.77306 -1.77636e-15 
-1.32663 1.67365 -1.77636e-15 -1.5411 1.61024 -1.77636e-15 -1.73903 1.47477 -1.77636e-15 
-1.91635 1.24813 -1.77636e-15 -2.05391 1.02937 -1.77636e-15 -2.10869 0.67401 -1.77636e-15 
-2.13447 0.348888 -1.77636e-15 -2.12123 0.023934 -1.77636e-15 -2.06553 -0.332271 -1.77636e-15 
-2.01276 -0.705615 0 -1.91248 -1.08435 0 -1.72676 -1.41663 0 
-1.5286 -1.74356 0 -1.32858 -1.98375 0 -1.08408 -2.23519 0 
-0.803566 -2.40355 0 -0.503945 -2.49022 0 -0.147221 -2.44907 0 
0.109795 -2.2474 0 0.376098 -2.10606 0 0.634405 -1.90571 0 
0.911082 -1.74864 0 1.32841 -1.69664 0 1.54496 -1.51558 0 
1.72373 -1.38576 0 1.88859 -1.20247 0 2.08195 -0.990143 0 
2.1313 -0.726716 0 2.25903 -0.444892 -1.77636e-15 2.24118 -0.150843 -1.77636e-15 
2.1706 0.118485 -1.77636e-15 2.04524 0.333599 -1.77636e-15 1.87626 0.55403 -0.111706 
1.67548 0.728939 -0.0473061 1.50015 0.950902 -1.77636e-15 1.31635 1.19904 0 
1.08914 1.40679 -1.77636e-15 0.832056 1.60499 -1.77636e-15 0.593291 1.78079 -1.77636e-15 
0.311429 1.96418 -1.77636e-15 0.0330152 2.11256 -1.77636e-15 -0.271323 2.1139 -1.77636e-15 
-0.564464 2.00846 -1.77636e-15 -2.61381 1.49611 -1.77636e-15 -2.42534 1.78433 -1.77636e-15 
-2.20185 2.00242 -1.77636e-15 -2.00003 2.27298 -1.77636e-15 -1.78545 2.45238 -1.77636e-15 
-1.55936 2.61255 -1.77636e-15 -1.30692 2.81556 -1.77636e-15 -1.04253 2.89066 -1.77636e-15 
-0.69096 2.87274 -1.77636e-15 -0.369639 2.85993 -1.77636e-15 -0.0490481 2.83612 -1.77636e-15 
0.265081 2.81074 -1.77636e-15 0.607878 2.72843 -1.77636e-15 0.906307 2.57881 -1.77636e-15 
1.24676 2.40489 -1.77636e-15 1.61701 2.21819 -1.77636e-15 2.04348 2.07714 -1.77636e-15 
2.41197 1.95574 -1.77636e-15 2.64401 1.78495 -1.77636e-15 2.80486 1.54464 -0.044115 
2.92642 1.26679 -0.0437706 3.01271 0.960689 -0.0574756 3.03336 0.639054 -0.189079 
3.01167 0.334413 -0.0221954 2.92475 0.0167505 -0.0877926 2.84267 -0.28052 -0.0212883 
2.77641 -0.592112 -0.0469603 2.68788 -0.90388 -0.0262082 2.55893 -1.17861 0 
2.38413 -1.38504 0 2.18498 -1.5865 0 1.98313 -1.82083 0 
1.80942 -2.04113 0 1.64769 -2.2597 0 1.45824 -2.47612 0 
1.24227 -2.72052 0 0.993519 -2.90545 0 0.703944 -3.13755 0 
0.391113 -3.37122 0 0.0108526 -3.53427 0 -0.339161 -3.4734 0 
-0.666313 -3.37186 0 -0.996262 -3.30232 0 -1.33581 -3.20323 0 
-1.62565 -2.99867 0 -1.90572 -2.74601 0 -2.15527 -2.44713 0 
-2.36469 -2.11613 0 -2.54522 -1.76486 0 -2.68391 -1.40514 0 
-2.80325 -1.05563 0 -2.90975 -0.709473 0 -2.9713 -0.364902 -1.77636e-15 
-2.98115 -0.0178618 -1.77636e-15 -2.92289 0.345225 -1.77636e-15 -2.85414 0.733608 -1.77636e-15 
-1.02866 -2.5735 -1.28924 -1.01231 -2.58469 -0.95837 -1.20741 -2.44461 -1.1121 
0.261054 2.1943 -0.855627 0.109781 2.16171 -0.39127 0.40846 2.02776 -0.500013 
-0.321441 -2.62465 -0.192696 -0.0361729 -2.51794 -0.188998 1.96417 0.543583 -0.481787 
1.8306 0.768959 -0.363457 -1.53256 -1.70413 -1.69497 -1.64353 -1.67899 -1.32771 
-1.62994 -1.46152 -1.5876 -1.4371 -1.92259 -1.52847 -2.08402 0.0896743 -0.136713 
-2.03749 -0.323686 -0.187811 0.218193 -2.33623 -0.256885 0.499926 1.89004 -0.301822 
0.715491 1.74788 -0.339377 0.58872 1.87731 -0.609577 -2.08674 0.448808 -0.836201 
-2.08493 0.415019 -0.457195 -2.07177 0.714108 -0.567665 -2.08913 0.172177 -0.760271 
0.453046 -2.10006 -0.21271 0.692732 -1.93306 -0.18137 -0.598437 2.14569 -0.983715 
-0.430645 2.27995 -1.2191 -0.589141 2.19218 -1.31212 -1.19868 -2.42374 -0.821593 
0.0527235 -2.53133 -0.756262 0.20097 -2.44871 -0.829614 0.188639 -2.4596 -0.558298 
0.343558 -2.29973 -0.491785 1.68662 0.909277 -0.224248 1.58236 1.1097 -0.273018 
-1.96662 1.29771 -0.763787 -1.84415 1.50487 -0.93383 -1.93145 1.37522 -1.17828 
-0.527191 -2.74805 -0.742835 -0.762153 -2.69878 -0.598477 -0.719433 -2.77087 -0.898643 
-1.91399 1.38973 -0.528398 -1.91642 -1.03933 -0.407142 -1.86638 -1.21028 -0.199642 
-1.97209 -0.89402 -0.127434 2.07388 0.316682 -0.653127 1.99808 0.496114 -0.952655 
-1.81795 -1.30753 -0.473142 2.19558 -0.2083 -0.469983 2.17284 -0.434099 -0.556836 
-2.01139 -0.603506 -0.0825573 -1.47588 1.17611 -2.93309 -1.773 1.05509 -2.58954 
-1.46447 1.34502 -2.65883 1.94367 0.748815 -1.75686 1.8421 0.937833 -1.73674 
1.83814 0.876601 -1.51974 -2.01397 -0.682487 -0.362754 2.17472 0.00519619 -0.397759 
2.24791 -0.719049 -0.414712 0.672648 -1.9926 -0.49207 0.740531 -1.93243 -0.783383 
0.854945 -1.83533 -0.375592 -0.354674 2.19611 -0.403218 0.529436 -2.14713 -0.726807 
0.342658 -2.36859 -1.10713 0.131998 -2.48248 -1.16044 -0.683376 0.219984 -4.51844 
-0.84474 0.291675 -4.32865 -0.636424 0.321423 -4.62017 0.250004 -2.40767 -1.80494 
0.102875 -2.48808 -1.46885 -0.0947026 -2.50116 -1.81631 1.95513 0.882978 -2.01907 
-1.26964 -2.32483 -1.4023 -1.08343 -2.51021 -1.64915 2.0494 0.634154 -2.09304 
2.026 0.511258 -1.85374 1.64536 0.932844 -5.15554 1.79502 0.782982 -5.19429 
1.61982 0.873187 -5.35939 1.69672 -1.38286 -0.35964 1.9214 -1.18323 -0.328286 
1.76037 0.660393 -5.47716 2.08661 0.21991 -1.03179 2.02235 0.340607 -1.34083 
1.65058 1.14581 -1.02741 1.75624 0.992422 -1.21471 1.6644 1.16405 -1.36235 
-0.490285 2.1669 -0.658973 -0.726493 2.02886 -0.652344 -1.45464 -1.52633 -2.19761 
-1.33721 -1.78763 -2.28058 -1.40559 -1.76573 -2.02268 1.76736 0.972603 -0.863868 
2.12236 -0.525933 -0.883841 -1.41343 -1.50784 -2.57378 -1.45387 -1.91173 -1.86577 
-0.332234 2.29384 -0.952187 -2.03634 -0.491872 -0.55187 -2.03437 -0.580265 -0.904847 
-1.97044 -0.872388 -0.716219 0.00572571 -2.5484 -0.505694 -2.05456 0.942353 -1.14288 
-2.06602 0.888937 -0.853472 -2.01655 1.12574 -0.976504 -0.812312 0.0181263 -4.35277 
2.12986 0.186538 -0.430139 -2.06389 0.901034 -1.53708 -2.08969 0.684966 -1.27163 
-2.06601 0.642737 -1.63412 1.9884 -0.825361 -1.08912 2.06051 -0.515468 -1.35289 
0.617017 -1.97432 -3.32937 0.569464 -1.99444 -2.9752 0.396958 -1.8729 -3.13388 
-1.38335 -2.15477 -1.43455 -1.33469 -2.10722 -1.78325 -1.30736 -2.28552 -1.67122 
-0.706304 -2.60502 -2.01455 -0.520718 -2.51627 -2.12577 -0.551993 -2.65628 -1.80288 
-0.134299 -2.66609 -0.870812 -1.47333 -1.93742 -1.20225 -1.36191 -2.2221 -1.05925 
-1.51896 -1.91593 -0.820478 -0.941409 -2.48544 -0.324786 -0.109846 2.29268 -0.668297 
1.2547 -1.68575 -2.09804 1.33368 -1.53044 -1.97435 1.15559 -1.70084 -1.86871 
1.44759 -1.48268 -2.28102 -1.12885 1.84769 -0.418018 -0.872141 1.94599 -0.31724 
-0.964836 1.89751 -0.645716 -1.13575 1.84438 -0.751167 2.10478 -0.945215 -0.363412 
2.18335 -0.890018 -0.669567 -0.297016 -2.6131 -1.90981 -0.285184 -2.75112 -0.683434 
-0.0451243 1.1793 -4.61308 -0.126444 1.38605 -4.38795 0.0416249 1.30912 -4.63798 
0.141903 2.30426 -1.99427 0.382987 2.27855 -1.7153 0.539252 2.2138 -2.02309 
-1.20529 -2.37733 -0.480698 -1.39249 -2.06716 -0.300584 -1.378 -2.20765 -0.640632 
-1.19799 -2.29486 -0.207075 -1.0361 -2.56924 -0.627288 -0.687361 2.07418 -0.279369 
-1.70933 -1.59058 -0.689833 -1.84344 -1.2387 -0.733854 -1.73498 -1.49984 -0.996845 
2.15159 0.0249254 -0.72557 1.40601 1.71129 -3.6717 1.14011 1.78688 -3.32097 
1.4143 1.62177 -3.41687 0.866019 -1.98198 -3.23259 1.08867 1.82588 -3.68478 
0.971954 1.99728 -3.36301 0.844343 2.10735 -3.02622 1.01965 1.94125 -2.98138 
-1.87628 -1.01815 -1.30065 -1.86707 -1.13599 -1.02435 -1.94602 -0.890813 -1.03955 
-1.54038 -1.93381 -0.53213 0.556036 2.16027 -1.64485 -0.200949 -2.66568 -0.407218 
-0.462774 -2.75351 -0.454391 1.78604 -0.9771 -2.43033 1.91344 -0.703412 -2.37544 
1.81631 -0.803886 -1.98251 2.07612 -0.0229619 -1.86839 2.08012 0.0733587 -1.44461 
2.07713 -0.226138 -1.45246 1.79061 -1.38682 -0.727448 2.03732 -1.12471 -0.69931 
1.91822 -0.561732 -1.94746 -1.30196 1.78834 -0.515682 -2.10655 0.647715 -0.135298 
-2.09808 0.38704 -0.103402 -1.7814 -1.31284 -1.30871 0.913203 2.13827 -2.78444 
-1.60763 -1.72854 -0.28103 -0.398214 2.2691 -2.18357 -0.644569 2.10474 -2.05044 
-0.645938 2.14251 -1.85181 -1.98245 -0.713283 -1.26864 -2.05614 -0.380904 -1.38053 
-1.90561 -0.644646 -1.76187 -1.97068 1.39607 -0.279409 -2.01214 1.19932 -0.34475 
-0.64904 -2.62905 -0.242861 -0.594151 2.08757 -2.40437 1.92 -1.02273 -3.08777 
1.73494 -1.32689 -3.14964 1.8821 -1.24428 -3.4931 0.747059 2.01257 -1.73694 
1.01427 1.86587 -1.50816 1.09749 1.91489 -1.84922 1.23424 1.65564 -1.54679 
1.47519 -1.29879 -1.78929 1.619 -1.15531 -1.58553 1.41331 -1.38108 -1.4467 
1.61483 -1.14868 -1.22207 -2.11945 0.436278 -1.16325 -2.08438 0.696609 -0.956674 
-1.08931 0.502044 -3.97077 -0.973746 0.139151 -4.16229 -1.22695 0.165512 -3.84519 
-1.74113 -1.49634 -0.358855 -0.801682 0.457517 -4.31758 1.88823 -0.821115 -1.71068 
1.75217 -0.99925 -1.74083 1.64938 -1.06561 -2.02698 1.65885 -1.29181 -2.75766 
-1.58415 -1.23082 -2.10292 -1.70706 -0.878012 -2.11291 -1.5572 -1.00813 -2.41384 
-1.62494 1.70524 -0.380129 -1.78665 1.55962 -0.623021 -1.78367 1.57944 -0.206176 
-1.14033 -0.691936 -3.67837 -1.21916 -0.435731 -3.73082 -1.04039 -0.456078 -3.94906 
-1.25149 -0.734299 -3.43128 -1.15099 -2.31301 -2.00102 -1.65844 -1.75812 -0.517567 
-1.93325 0.369025 -2.24457 -1.9364 0.625419 -2.46876 -1.83512 0.296362 -2.62423 
-2.00034 0.613645 -2.17342 -0.981689 1.83369 -2.33442 -1.13459 1.8034 -1.88797 
-0.846655 1.91274 -2.18912 -1.35608 1.64471 -2.05918 -0.673154 1.983 -2.5788 
-0.770145 1.86825 -2.85165 -1.99219 1.16766 -1.36849 -0.0240559 2.33861 -1.06929 
-1.20113 1.88663 -1.43566 -1.39598 1.70842 -1.65552 -0.890628 2.0242 -1.69485 
-1.59869 1.60873 -1.75791 -1.53389 1.6839 -1.39871 -1.79117 1.5407 -1.42448 
-1.44084 1.72898 -1.10396 -0.827286 -2.64447 -1.75976 -0.974338 -2.47894 -2.05422 
0.93245 -1.7416 -0.561973 1.1249 -1.57139 -0.717547 1.35216 -1.70271 -0.285762 
0.966373 -1.74682 -0.904281 -0.314575 1.11761 -4.44962 2.17856 -0.24534 -0.832628 
-0.858177 2.00551 -1.0249 -0.821393 -2.74923 -1.19582 -0.113907 2.21927 -0.296547 
1.54468 -1.2695 -2.05708 -0.608332 1.95428 -3.10839 -0.395083 2.07118 -3.32077 
-0.517027 1.8883 -3.4271 -0.617796 -2.74149 -1.45285 -0.470621 -2.78796 -1.05149 
[...]
POINT_DATA 2395
FIELD FieldData 1
Nodal_area 3 2395 float
0 0 0 0 0 0 0 0 0 
0 0 0 0 0 0 0 0 0 
0 0 0 0 0 0 0 0 0 
0 0 0 0 0 0 0 0 0 
0 0 0 0 0 0 0 0 0 
0 0 0 0 0 0 0 0 0 
0 0 0 0 0 0 0 0 0 
0 0 0 0 0 0 0 0 0 
0 0 0 0 0 0 0 0 0 
0 0 0 0 0 0 0 0 0 
0 0 0 0 0 0 0 0 0 
0 0 0 0 0 0 0 0 0 
0 0 0 0 0 0 0 0 0 
0 0 0 0 0 0 0 0 0 
0 0 0 0 0 0 0 0 0 
0 0 0 0 0 0 0 0 0 
0 0 0 0 0 0 0 0 0 
0 0 0 0 0 0 0 0 0 
0 0 0 0 0 0 0 0 0 
0 0 0 0 0 0 0 0 0 
0 0 0 0 0 0 0 0 0 
0 0 0 0 0 0 0 0 0 
0 0 0 0 0 0 0 0 0 
0 0 0 0 0 0 0 0 0 
0 0 0 0 0 0 0 0 0 
0 0 0 0 0 0 0 0 0 
0 0 0 0 0 0 0 0 0 
0 0 0 0 0 0 0 0 0 
0 0 0 0 0 0 0 0 0 
0 0 0 0 0 0 0 0 0 
0 0 0 0 0 0 0 0 0 
0 0 0 0 0 0 0 0 0 
0 0 0 0 0 0 0 0 0 
0 0 0 0 0 0 0 0 0 
-0.054165 -0.0637624 -0.00413562 -0.0590606 -0.0842783 0.00532694 -0.0469321 -0.0456235 -0.00124673 
0.0637156 0.128721 0.0236527 0.0243141 0.0581512 0.0122702 0.0386072 0.0515879 0.01038 
0.00572218 -0.033689 0.01458 0.020416 -0.0334469 0.00852212 0.0482791 0.0205491 0.00348427 
0.0353914 0.016488 0.00914785 -0.0778947 -0.0324578 -0.015461 -0.101615 -0.0488208 -0.0195938 
-0.0792926 -0.0315174 -0.0170598 -0.0757712 -0.0376792 -0.00869689 -0.0449066 -0.00348144 -0.00144657 
-0.0640646 -0.00539635 0.00125682 0.0316566 -0.0399722 0.0117876 0.0146966 0.0181256 0.00349053 
0.0298454 0.0448959 0.00660681 0.0482789 0.0618197 0.0114427 -0.0897732 0.00331491 0.00465891 
-0.106183 -0.000765573 -0.0019142 -0.119444 0.00479373 -0.00358241 -0.103095 -0.00186913 0.00646079 
0.0196445 -0.0240173 0.00853009 0.020562 -0.026364 0.00529276 -0.0439795 0.0763923 0.0101495 
-0.0281283 0.0544706 0.00602072 -0.0455661 0.0700295 0.00272371 -0.0617238 -0.0579876 0.00368396 
0.0220047 -0.0367845 0.00369741 0.0595516 -0.0739837 0.00418601 0.0267176 -0.0378242 0.00584482 
0.0512705 -0.0552389 0.0102436 0.0186512 0.011236 0.00886149 0.0358247 0.0337052 0.0128348 
-0.0802564 0.033205 -0.000746312 -0.070871 0.0669434 -0.00125365 -0.0755811 0.0377058 -0.00294721 
-0.00373942 -0.0589366 0.00567484 -0.0417999 -0.0980487 0.0216593 -0.0210283 -0.0655744 0.00766 
-0.0584291 0.0389451 -0.00359928 -0.0910991 -0.0290343 -0.00161864 -0.0346093 -0.0126381 -0.00122191 
-0.0415311 -0.0102483 -0.000680417 0.0622651 0.0213753 -0.0020983 0.111435 0.0425863 -0.00427281 
-0.0610209 -0.0234228 -0.000675547 0.0406874 0.00222384 -0.00218772 0.0453253 -0.000864488 -0.00554706 
-0.0274291 -0.00302818 0.00110613 -0.0647653 0.054571 -0.0473941 -0.139364 0.0673036 -0.0652001 
-0.0511245 0.0585679 -0.0366802 0.0588178 0.0218126 0.0122083 0.0376999 0.0196573 0.00944804 
0.0539037 0.0274001 0.00535888 -0.0966882 -0.0166721 0.000571932 0.0217031 0.00374423 -0.001306 
0.0503442 -0.0034509 -0.00755691 0.0417015 -0.0467437 0.00377149 0.0740603 -0.0742468 0.00909227 
0.02942 -0.0434834 -0.00530171 -0.0142001 0.0493504 0.00759859 0.0765778 -0.0837412 0.0116872 
0.0592701 -0.0826238 0.00286981 0.0320304 -0.0495579 -0.00428392 -0.0470518 0.000244344 -0.0302713 
-0.0339788 0.00189989 -0.02498 -0.0587064 0.0109774 -0.0386262 0.0291312 -0.06991 -0.0145354 
0.0558479 -0.115833 -0.00960536 0.0349721 -0.0882475 -0.0199051 0.0541502 0.0215148 0.013675 
-0.0629235 -0.0537156 -0.00367894 -0.0705181 -0.0827829 -0.0154931 0.080736 0.0230989 0.0170662 
0.0523433 0.0151087 0.0100622 0.0338764 0.0545335 -0.0330996 0.0473397 0.0619355 -0.0340937 
0.0253155 0.0402311 -0.0288658 0.0302385 -0.0521446 -0.00636697 0.0430751 -0.0407244 0.00873976 
0.0446462 0.0662386 -0.0508572 0.102671 0.0256647 -0.00768674 0.0954399 0.0282357 0.00128503 
0.0630632 0.0466738 0.00306868 0.0573254 0.0336356 0.00210477 0.050269 0.0280702 0.00681092 
-0.0378291 0.0723988 0.00579131 -0.0477782 0.0821894 0.00433415 -0.0807066 -0.0319441 -0.0208086 
-0.068512 -0.0350895 -0.0219695 -0.0680245 -0.0268404 -0.023493 0.075633 0.0487263 -0.00220476 
0.13143 -0.0155243 -0.0295619 -0.10356 -0.0523651 -0.0520396 -0.0520262 -0.0219673 -0.0111459 
-0.02852 0.0913234 0.0128773 -0.107149 -0.0128839 0.00316487 -0.0997346 -0.0203474 -3.4751e-05 
-0.123774 -0.0333858 -0.0020454 0.0473321 -0.073007 0.0107225 -0.0793068 0.0146791 -0.000455991 
-0.0564752 0.00716187 -0.000102816 -0.078893 0.0211665 -0.00182175 -0.0650121 -0.00448967 -0.0476726 
0.0222155 0.00589008 -0.00158806 -0.0885174 0.0161438 -0.00716208 -0.0867797 0.00855931 -0.00276128 
-0.0849943 0.00832038 -0.00867125 0.106852 -0.0588093 -0.042162 0.103361 -0.024937 -0.0177604 
-0.0263441 -0.100594 0.00603525 -0.011853 -0.0756998 -0.00330851 -0.0229376 -0.0826078 -0.011887 
-0.0685033 -0.0282213 -0.00608366 -0.0686254 -0.0337655 -0.0157712 -0.0495766 -0.0345942 -0.0107445 
-0.00765622 -0.0529015 -0.0246283 0.0118361 -0.0654713 -0.0436268 0.00545174 -0.0806343 -0.0206928 
0.035227 -0.0720044 0.001699 -0.0864018 -0.0471924 -0.00816845 -0.102937 -0.0595538 -0.00317313 
-0.103235 -0.0579382 -0.00707484 -0.0310986 -0.0518287 0.021126 0.0131698 0.114623 0.0197357 
0.0461693 -0.0466282 0.00691526 0.0638034 -0.0488791 0.0105325 0.0686295 -0.0634061 0.00598289 
0.080109 -0.063059 0.010866 -0.0127965 0.0387719 -0.00140211 -0.0194942 0.036887 -0.00101176 
-0.028141 0.062637 0.00360192 -0.0316737 0.0749306 0.0029799 0.037693 -0.0251335 0.0061847 
0.0847691 -0.0261295 -0.0226523 0.0186229 -0.0596133 -0.0214232 0.0247426 -0.0748957 0.00445912 
-0.0393254 0.0389264 -0.0442064 -0.0382805 0.0412559 -0.0420725 -0.0307921 0.0496883 -0.048155 
0.0246029 0.119209 -0.00145328 0.0271279 0.0823497 0.00457979 0.0509093 0.105654 0.0105689 
-0.0603793 -0.0610585 0.0179812 -0.0515122 -0.0366559 0.0132904 -0.0861288 -0.0588633 0.00587208 
-0.0187425 -0.0206005 0.00670903 -0.0400826 -0.0586239 0.012393 -0.0221138 0.0429462 -0.00030729 
-0.0964374 -0.0411819 -0.00212546 -0.0990783 -0.0360796 -0.00235282 -0.0949153 -0.0350054 -0.0053454 
0.101019 0.0191958 -0.00744436 0.0331897 0.0586826 -0.00244827 0.056864 0.0855386 -0.00655606 
0.0568099 0.0632257 -0.00286848 0.0115727 -0.114892 0.0101094 0.0390628 0.080441 -0.0209962 
0.0604794 0.078561 -0.0122759 0.0313842 0.0607052 -0.00475189 0.0631325 0.0866309 -0.018128 
-0.0724407 -0.023128 -0.00909297 -0.0912169 -0.0314684 -0.00620216 -0.0690024 -0.0205808 -0.00494121 
-0.0553061 -0.0355409 0.00633504 0.0473923 0.0651493 0.0147932 0.0234709 -0.0530915 0.013308 
-0.00220804 -0.0736761 0.0176206 0.0981038 -0.0591793 0.0156767 0.101297 -0.0396047 0.01384 
0.0847568 -0.0459069 -0.00034934 0.138065 -0.0167294 0.00639626 0.113704 0.0104014 -0.00403371 
0.091496 -0.00698275 -0.0106534 0.069634 -0.119389 -0.0357132 0.0881187 -0.0713616 -0.0297165 
0.0909595 -0.0303377 -0.00211546 -0.0170638 0.04996 -0.00145692 -0.0570595 0.000349919 -0.00383509 
-0.0488191 -0.00206184 -0.00203055 -0.0930554 -0.0351075 -0.0148159 0.0396755 0.077897 -0.00448191 
-0.0298943 -0.0181659 0.00825927 -0.0489139 0.0744145 -0.0103284 -0.0454295 0.0603532 -0.0125946 
-0.0380002 0.0582433 -0.00440506 -0.117939 -0.0334421 -0.0146898 -0.115976 -0.0227625 -0.0172155 
-0.168761 -0.0480748 -0.0459671 -0.0195631 0.0122444 -0.0057141 -0.058457 0.0188176 -0.00735354 
-0.0152676 -0.0439186 0.0175483 -0.0538189 0.0647979 -0.00862653 0.125157 -0.062759 0.0309761 
0.0792772 -0.0463909 0.0220044 0.0823785 -0.0439316 0.0204478 0.0567127 0.106186 0.0199575 
0.0664213 0.107876 0.033605 0.0646016 0.10901 0.0264162 0.0614518 0.0718286 0.0212188 
0.0695488 -0.0506638 0.00255243 0.074332 -0.0641271 -0.00164922 0.0708082 -0.0616322 0.00407914 
0.0822585 -0.0810753 -0.0259009 -0.0820649 0.00485721 0.000259848 -0.0790662 0.00663603 0.00232864 
-0.0753566 0.0182336 -0.0557179 -0.0895789 0.00370482 -0.0720626 -0.0813051 0.00425095 -0.0532966 
-0.0441548 -0.0175917 0.00246286 -0.0854916 0.0233884 -0.064045 0.0621693 -0.0317208 -0.0105331 
0.0501678 -0.0383651 -0.00515212 0.0895649 -0.0626006 0.00402432 0.0929617 -0.0593787 0.0262198 
-0.100909 -0.0293511 -0.0314588 -0.109173 -0.0384755 -0.035066 -0.106948 -0.0322565 -0.0325792 
-0.0236248 0.0392717 -2.29447e-05 -0.0482246 0.0488298 -0.00126466 -0.0289622 0.0284604 -0.00272827 
-0.0632692 -0.0328097 -0.0441669 -0.0703144 -0.0236312 -0.0448174 -0.0630995 -0.0220415 -0.0502342 
-0.0952814 -0.0446485 -0.0537382 -0.0835662 -0.0669514 -0.0325774 -0.0498157 -0.0252973 0.0010704 
-0.0922639 -0.0154627 -0.026985 -0.113402 0.0101069 -0.0419278 -0.116418 -0.0130174 -0.0444508 
-0.0713807 0.00398107 -0.0167405 -0.0888792 0.128511 -0.0329378 -0.0670981 0.109806 -0.024328 
-0.061056 0.0891594 -0.0176392 -0.0649176 0.1034 -0.0257893 -0.0587065 0.072335 -0.00925393 
-0.0770212 0.0727015 -0.0245141 -0.0885975 0.0274082 -0.00458396 0.0292527 0.123656 0.0154715 
-0.0611802 0.110462 -0.00779791 -0.0380738 0.0719084 -0.0156646 -0.061361 0.103767 -0.0165563 
-0.0492117 0.0827645 -0.0219801 -0.0435118 0.0796172 -0.00648229 -0.0711144 0.0828299 -0.00952287 
-0.0342254 0.0780736 0.00222321 -0.0272704 -0.077818 -0.0175929 -0.0406752 -0.0675204 -0.0300767 
0.0489058 -0.0800395 -0.0218405 0.0262699 -0.0916641 -0.0103914 0.0277353 -0.0609718 -0.0269276 
0.0627992 -0.0676764 0.0121712 -0.0505204 0.0468107 -0.0502806 0.0827569 -0.00206323 -0.00841084 
-0.0654236 0.121322 0.0107192 -0.0319469 -0.0810362 -0.00457584 0.00198518 0.0287849 0.00570589 
0.0597665 -0.0371547 0.00972866 -0.0454976 0.0373959 -0.0190407 -0.0351287 0.0530444 -0.0265318 
-0.0546241 0.0439159 -0.0339847 -0.000444131 -0.11324 -0.0211715 0.0109714 -0.104903 -0.00358599 
-0.0615756 0.0762591 -0.0189449 -0.0337493 0.0307533 -0.0178459 -0.049678 0.0371164 -0.030762 
-0.0408716 0.0372804 -0.0288295 0.0346548 -0.0405006 0.00831147 -0.0891441 -0.0299482 -0.0286357 
-0.0671706 0.0986962 -0.037665 -0.0719454 0.0781207 -0.0363279 -0.122878 0.0350831 -0.0304241 
-0.0686414 0.0114202 -0.0100232 -0.0593185 0.00964976 -0.0105968 -0.101934 0.037705 -0.0194478 
-0.0578844 0.0510356 -0.0397527 0.0573145 -0.0587812 0.0141879 0.0773404 -0.0857055 0.0114611 
-0.0733986 0.0656101 -0.0262279 -0.0601883 0.0811319 -0.0272237 -0.0624276 0.0329456 -0.0082097 
0.0283848 -0.084503 -0.0121626 0.0378685 -0.107418 -0.0198577 0.0306962 -0.056837 -0.0106336 
0.0917309 0.0078918 -0.0109732 0.0334716 0.0557016 0.00873333 0.0606403 0.0294081 0.0132919 
0.0739373 0.0422657 0.0187455 0.0274773 0.0155436 0.00276454 0.0666099 -0.0852118 0.00063924 
0.0533106 -0.0570402 0.00655633 0.0335082 -0.0547974 -0.00291499 -0.111542 -0.00863366 0.00151999 
-0.0844118 -0.00271793 -0.00813275 -0.0669481 -0.00706638 -0.0102087 -0.0855763 0.0497884 -0.0702469 
-0.0711986 0.041982 -0.0528647 -0.0933336 0.0242879 -0.0586526 -0.0746963 0.0199644 -0.0477989 
-0.0639931 -4.53997e-05 0.00396247 -0.0632094 0.0645095 -0.0540153 0.0555077 0.0838437 0.0135008 
0.0629827 0.0421797 0.0130309 -0.0913444 0.00555983 -0.0479668 -0.0998085 -0.00615634 -0.0490062 
-0.113214 -0.0203386 -0.0401136 -0.123817 -0.0224267 -0.0398136 0.094887 0.0431207 0.0033557 
0.0688555 0.0455504 0.0129014 -0.104002 -0.0276093 -0.0359951 -0.0991065 -0.0208415 -0.0326626 
-0.123755 -0.0336513 -0.0444039 -0.0865293 -0.0247171 -0.0299783 -0.0998331 -0.032447 -0.0364914 
-0.0899597 -0.0608996 -0.0609326 -0.0761347 -0.0544561 -0.0585743 -0.0447542 -0.0579805 -0.0598515 
-0.0374699 0.0494984 -0.0448585 -0.0482377 0.0427019 -0.0423718 -0.0242117 0.0570419 -0.0453194 
-0.0409415 0.0327483 -0.0299694 -0.0434993 0.03007 -0.0287145 0.0363614 0.0463553 0.0107579 
-0.0813377 -0.0140317 -0.000901428 -0.124311 -0.00988903 0.00800016 -0.0414817 0.0881807 0.00809454 
-0.0100759 0.0427785 8.50422e-05 -0.0220809 0.0680222 -0.00208779 -0.0397246 0.0755498 -0.00543783 
-0.0601629 0.046568 -0.0399014 -0.0408865 -0.0276743 -0.00995668 -0.0416583 -0.0168491 -0.0159379 
-0.0410872 -0.018304 -0.0181687 -0.104938 -0.0514354 -0.0580585 -0.0830364 -0.0350046 -0.0407358 
-0.0903341 -0.0512205 -0.0569738 -0.0729158 -0.0666785 -0.0451194 -0.0547243 -0.0407595 -0.0335203 
-0.0327585 -0.0341189 -0.0296469 -0.0522432 -0.0291402 -0.0427851 -0.0456997 -0.0369692 -0.0452692 
-0.0264104 0.0688075 -0.0521749 -0.0215543 0.0652471 -0.051009 -0.0488378 -0.0655085 -0.0388967 
-0.0584867 -0.0783839 -0.0589264 -0.0509358 0.0372667 -0.0346399 -0.0400324 0.0288858 -0.0268871 
-0.0470132 0.0337746 -0.0321642 0.0303839 0.118756 0.00357663 -0.00861006 0.091948 0.0064522 
-0.0835515 0.0111637 -0.0422303 -0.0287718 0.0415544 -0.0216052 -0.0312844 0.042247 -0.0245074 
-0.00952175 0.0462417 -0.0256037 -0.0193803 0.0699187 -0.0257208 -0.0259815 0.0565829 -0.0359254 
-0.0616981 0.0429137 -0.0374744 -0.0514976 0.0304941 -0.0303722 -0.0474319 0.0506175 -0.0437376 
-0.0482505 -0.0703573 -0.0032138 -0.0590557 -0.0671421 -0.000306637 -0.030013 -0.0432414 -0.00854759 
-0.0616094 -0.0707515 -0.00283521 -0.0506369 -0.0737815 -0.0136764 -0.0223484 -0.0419305 -0.0307586 
0.100261 0.0458605 -0.000432854 0.059086 0.121831 0.017965 0.0813903 0.11878 0.0290117 
-0.0691786 -0.0259937 -0.0167424 -0.069413 -0.0216904 -0.01586 -0.0204115 -0.0698323 -0.0339768 
-0.0427538 -0.0867814 0.000568076 -0.0805956 -0.0221582 -0.0261151 -0.106835 -0.0246489 -0.0341893 
-0.0879478 -0.0274816 -0.0301803 -0.0784316 -0.00624983 0.00232993 -0.103796 0.00077573 -0.00926512 
-0.110019 -0.00651166 -0.0209247 -0.102554 -0.017472 -0.0247959 0.0617027 -0.0573268 0.0108644 
0.0427172 -0.0660893 -0.00698078 0.107761 0.0425882 0.0169561 0.0911714 0.0261374 0.0154508 
-0.0987885 -0.00467128 0.00100357 -0.0417412 0.0486282 -0.0269516 -0.111056 -0.0133373 -0.0207098 
-0.0282709 0.042757 -0.0372169 -0.0200522 0.0690133 -0.0450415 -0.0204152 -0.0353674 -0.0353664 
-0.00981443 -0.0666706 -0.0851153 0.00163507 -0.0590876 -0.0503338 -0.057184 -0.0183322 -0.0154135 
-0.0764648 -0.029803 -0.0214411 -0.0701015 -0.0096849 -0.0186404 0.0526438 0.0608676 0.0139675 
0.039769 0.0527217 0.010854 -0.0198081 0.0710317 -0.0506965 -0.0278663 -0.0551523 -0.00848501 
-0.0395929 0.0710489 0.00132526 -0.0291697 0.066172 0.00546186 0.0689187 -0.0855721 -0.0249358 
-0.00739101 0.00161729 -0.00396521 -0.0580259 0.00598386 -0.00621469 -0.0893395 0.0174511 -0.00358705 
0.0444942 -0.0552453 -0.0160371 0.0360744 -0.0412794 -0.0129095 -0.0323353 -0.0417365 -0.0426416 
0.00839941 0.0745606 -4.05494e-05 -0.0122029 0.0535324 -0.00395425 -5.87395e-05 0.108128 -0.00363005 
-0.0602535 -0.0155074 -0.0145604 0.0150719 -0.0162467 -4.53626e-05 -0.00263351 0.0649099 -0.0393123 
-0.00670897 0.0136445 -0.00146431 0.0301519 -0.0378007 -0.0112716 -0.0456619 -0.0594133 -0.0574323 
-0.0477557 0.0368738 -0.0420475 -0.0269827 0.0205935 -0.0207033 -0.0461303 0.0323038 -0.0364619 
0.0723457 -0.0666143 -0.00606859 0.0657279 -0.0584045 -0.0437266 -0.0442959 0.0309163 -0.0323242 
-0.0749741 -0.0839937 -0.00533558 -0.0968369 -0.0708847 -0.0204863 -0.0560215 -0.0685215 -0.0178471 
0.013594 0.0638093 -0.0307347 0.0111762 0.0610056 -0.0270677 0.0211196 0.056564 -0.0280408 
-0.0325601 0.0614037 -0.00384574 -0.0322682 0.067281 0.000756501 -0.0336362 0.0476221 -0.000677028 
-0.0261084 -0.0809295 -0.0527347 0.0025465 -0.0375033 -0.0281599 -0.0106313 -0.0532038 -0.0354683 
-0.0147375 -0.0521431 -0.0426735 -0.0681349 -0.0195984 -0.0273632 0.064393 -0.029362 0.0136344 
0.0605116 -0.0360185 0.0154939 0.0820324 -0.0106651 0.0153469 0.0631641 -0.0226331 0.0111471 
0.124227 -0.0386024 0.0318893 0.102898 -0.0380168 0.0171385 -0.089513 0.0599468 -0.0302849 
0.0929085 0.0100931 0.0200171 0.0797175 0.000121312 0.0137755 0.0674087 0.0138998 0.0127141 
0.00759982 0.0395974 -0.0115741 -0.0798257 -0.0573956 -0.0378463 -0.0586057 -0.0588746 -0.0123114 
-0.0421535 -0.0722829 -0.0240153 -0.0866036 -0.0947629 -0.0249548 -0.0363294 -0.0927985 -0.0363611 
-0.114036 -0.0950143 -0.00850925 -0.110669 -0.0825977 -0.029591 0.034162 -0.0916812 -0.0357347 
0.0354866 -0.068208 -0.0186843 0.0276048 -0.0747435 -0.0282238 0.0144427 -0.0915811 -0.0498997 
0.019097 -0.084235 -0.0285537 0.0553502 0.115518 0.0178243 -0.0051432 -0.0637395 -0.0204872 
0.00449578 -0.0526955 -0.00752942 0.0160163 -0.0769632 0.00107762 0.0301561 -0.0702191 0.0102239 
0.0235054 -0.0494122 0.00299155 0.0639863 -0.0775402 0.0170686 0.0756276 0.0666403 0.00943009 
0.0790095 0.0870371 -0.00242604 0.0846883 0.078191 0.0141688 0.0573582 0.0711328 -0.0101213 
0.0537368 0.0826983 0.0264026 0.0722541 0.0727335 0.0211881 0.0908013 0.0928764 0.0231888 
-0.0477854 -0.0557588 -0.00139985 0.0351074 -0.0444709 -0.00225939 0.0569042 -0.0795233 0.00588982 
0.0370067 0.03176 0.00251719 0.0348527 0.0425781 -0.000502355 0.0477188 0.0453597 -0.00277281 
0.0448837 0.0636484 -0.00243593 0.054834 0.0506275 0.000537906 -0.0385932 0.0409581 -0.0394812 
-0.0517542 0.0562263 -0.0588515 -0.0483731 0.0654625 -0.0648822 -0.0623029 0.0816143 -0.078002 
0.0189486 -0.0811358 -0.0432383 0.104334 0.0690384 0.0152558 0.115849 0.0176481 0.0126219 
0.092061 0.0312619 0.00979779 0.0323603 0.0235459 -0.0565804 0.0390521 0.0242044 -0.0974061 
0.0160414 0.0285143 -0.106033 -0.0351009 0.0604734 -0.00316674 0.114012 0.0350945 0.020046 
0.0680263 -0.0558194 0.00494824 0.101342 0.030597 0.0196501 0.0737074 0.0371163 0.00953926 
0.0767858 0.0361865 0.00810425 0.0304458 0.0964718 -0.0497773 0.0133076 0.0904322 -0.0481234 
0.00383277 0.110249 -0.0485571 -0.0860032 -0.0214588 -0.0518849 -0.0740475 -0.0243923 -0.0469444 
-0.0809094 -0.0149745 -0.0555834 -0.111158 -0.0190584 -0.0503799 0.0934529 -0.0520791 0.039744 
0.0451657 -0.0316598 0.0117044 0.10613 -0.0514747 0.0291442 0.00981195 -0.00563264 -0.00517472 
0.0837503 -0.00758769 0.0119519 0.0669224 -0.00686088 -0.0104304 0.0989649 -0.0564164 0.0214671 
0.0961772 -0.049468 0.0210697 0.0927285 -0.0395221 0.0246135 0.0299702 0.127164 -0.0249188 
0.0850219 0.0416085 0.0126934 0.0808782 0.0531274 0.000495739 0.0820359 0.0743038 0.00102731 
0.0748878 0.0365402 -0.000830133 -0.0656792 0.0359967 -0.0424681 0.0535415 0.0450663 -0.0382024 
0.0419091 0.0472687 -0.0402637 0.0428467 0.0576082 -0.03452 0.108035 -0.053335 0.0324097 
0.0993537 -0.0462106 0.0215252 0.106147 -0.0240333 0.0223142 0.0120287 0.0746273 -0.0524007 
0.00706886 0.064006 -0.0331848 0.0302984 0.082335 -0.0440308 -0.0159654 0.0785061 -0.0586391 
0.0734141 0.0435931 -0.0267934 0.062811 0.0407723 -0.0387588 0.0591052 0.0440026 -0.0235966 
0.0642927 -0.0720333 0.0118351 0.0591894 -0.0549882 0.007565 0.0437873 -0.0671815 0.00973544 
0.0642865 -0.0709887 0.0221494 0.0524999 -0.0663462 0.0222899 0.0726322 -0.0627377 0.0249292 
0.0276531 0.0370325 -0.0129569 0.052686 0.0407529 -0.013629 0.0432622 0.0480735 -0.00758726 
0.0483865 0.0506885 -0.0112362 0.0683198 0.0828338 -0.0299401 0.0524032 0.0430854 -0.0154508 
0.0343822 0.068532 -0.0194958 -0.0269092 -0.0417886 -0.0381728 -0.0479257 -0.0423891 -0.0430938 
0.0493282 0.0741786 0.0128559 0.0257075 0.046209 0.00746243 0.036629 0.0615932 0.0127522 
-0.0667965 -0.0285855 -0.0587456 -0.0511712 -0.0278806 -0.0415491 0.053869 -0.0281592 -0.0106145 
0.068204 -0.0192879 -0.014053 0.0315759 -0.0163719 -0.0090782 -0.0843246 -0.0406725 -0.0311283 
0.0101346 -0.0291746 -0.013024 -0.0487256 -0.0388219 -0.0346005 -0.034535 -0.051402 -0.0354192 
0.079585 -0.0927333 0.00859226 0.0675732 -0.0630576 0.0100253 0.0450331 -0.057178 0.00985625 
0.0467594 0.107217 0.00477093 -0.00733767 0.0220916 0.00254914 -0.0513754 -0.00495218 -0.0217798 
-0.0557312 -0.00304435 -0.0211354 -0.0891739 -0.0196988 -0.0332508 -0.0624754 -0.0705403 -0.0707059 
-0.0469116 -0.0379928 -0.0364161 0.0148922 0.0692982 0.00645276 0.0217731 0.0801577 -0.00377002 
-0.0503318 0.0290896 -0.0384262 0.00193718 0.0631253 -0.0380331 -0.00800895 0.069942 -0.0400281 
-0.0674594 -0.0486858 -0.0495464 0.0083676 -0.08454 -0.0896335 -0.0548464 0.0576291 -0.0260105 
-0.0637274 -0.0366836 -0.00273582 -0.00670389 -0.0694084 -0.063822 0.0654603 0.0706123 0.0102913 
0.0872739 0.0867932 0.0127302 0.0438175 -0.0732298 0.00203277 -0.0315252 -0.0642546 -0.053409 
0.0358862 -0.0896759 -0.0179276 -0.0798053 -0.0330652 -0.0473605 -0.102939 -0.0402383 -0.0522236 
0.0282488 0.0484902 0.0102295 0.0674234 0.101699 0.00739895 0.0195408 0.0532346 -0.0287525 
0.0303258 0.0994281 -0.00790609 -0.0763283 0.0346888 -0.0549752 -0.078958 0.0427151 -0.0599887 