# vtk DataFile Version 5.1
vtk output
ASCII
DATASET UNSTRUCTURED_GRID
POINTS 2395 double
-1.0445625305 2.7595031738 -1.7763568394e-15 -3.1723091125 1.1504859924 -1.7763568394e-15 -1.3643217662 2.5375790397 -1.7763568394e-15 
-1.664898262 2.2903616448 -1.7763568394e-15 -1.9484693241 2.0244967305 -1.7763568394e-15 -2.1908752599 1.7205314983 -1.7763568394e-15 
-2.3847562003 1.3832187183 -1.7763568394e-15 -2.5246245276 1.0205172611 -1.7763568394e-15 -2.5986536531 0.63845630668 -1.7763568394e-15 
-2.6515420391 0.25296596353 -1.7763568394e-15 -2.6446513963 -0.13542694552 -1.7763568394e-15 -2.6031474856 -0.52242825152 -1.7763568394e-15 
-2.5530732274 -0.90843109712 0 -2.4586859923 -1.2853946357 0 -2.2721334572 -1.6260619002 0 
-2.062815447 -1.9537437051 0 -1.8242436766 -2.2606968384 0 -1.5529664102 -2.5395622219 0 
-1.2420297884 -2.7718699161 0 -0.88151950083 -2.9156545458 0 -0.49750102464 -2.9420679482 0 
-0.11971417906 -2.851086046 0 0.24512980338 -2.7169992684 0 0.60800013274 -2.5765194557 0 
0.95814041773 -2.4073823655 0 1.2859467309 -2.2257744112 0 1.5957688434 -2.0137011208 0 
1.8892902831 -1.7773213274 0 2.1156859131 -1.464076511 0 2.324344894 -1.1355762334 0 
2.4796019315 -0.78400463993 0 2.5907228371 -0.41745094983 -1.7763568394e-15 2.5775448763 -0.030842753139 -1.7763568394e-15 
2.5229894287 0.35388249889 -1.7763568394e-15 2.4235297445 0.72955930594 -1.7763568394e-15 2.2737069336 1.0875371395 -1.7763568394e-15 
2.0879550723 1.4295649758 -1.7763568394e-15 1.9093708147 1.7754348707 -1.7763568394e-15 1.6942061268 2.0990365672 -1.7763568394e-15 
1.4104917012 2.3636199432 -1.7763568394e-15 1.0910818153 2.5856639611 -1.7763568394e-15 0.75345140824 2.7793016125 -1.7763568394e-15 
0.40868846929 2.9598800817 -1.7763568394e-15 0.044969021853 3.0948242301 -1.7763568394e-15 -0.34161011255 3.0830910041 -1.7763568394e-15 
-0.70724685883 2.9533022902 -1.7763568394e-15 -3.0132726494 1.5008306948 -1.7763568394e-15 -2.8145060743 1.8302098512 -1.7763568394e-15 
-2.5848341882 2.1391556702 -1.7763568394e-15 -2.3420264878 2.4379879966 -1.7763568394e-15 -2.094670788 2.7330508956 -1.7763568394e-15 
-1.8380327896 3.019950119 -1.7763568394e-15 -1.5496663953 3.2738142401 -1.7763568394e-15 -1.2169080131 3.4629676271 -1.7763568394e-15 
-0.84823465001 3.5696878311 -1.7763568394e-15 -0.46565014211 3.6104149614 -1.7763568394e-15 -0.080762480179 3.6106673564 -1.7763568394e-15 
0.30293347823 3.5796969958 -1.7763568394e-15 0.68029945476 3.5055441117 -1.7763568394e-15 1.044449133 3.3815134498 -1.7763568394e-15 
1.3945222157 3.2214116935 -1.7763568394e-15 1.741909793 3.0553870322 -1.7763568394e-15 2.089905868 2.8906589822 -1.7763568394e-15 
2.4278786464 2.7069624334 -1.7763568394e-15 2.7033859988 2.4428201777 -1.7763568394e-15 2.8909961769 2.1074655204 -1.7763568394e-15 
3.0348016111 1.7505712447 -1.7763568394e-15 3.1460802295 1.3821917437 -1.7763568394e-15 3.2115710595 1.0032151443 -1.7763568394e-15 
3.2029320188 0.6185140334 -1.7763568394e-15 3.1489084654 0.23746218761 -1.7763568394e-15 3.0820577716 -0.14168057278 -1.7763568394e-15 
3.0267117662 -0.522686895 -1.7763568394e-15 2.9454159502 -0.898679319 0 2.8113299305 -1.2591854565 0 
2.6216722158 -1.5938183976 0 2.3939349838 -1.9041270013 0 2.1473721383 -2.1997392736 0 
1.8828559971 -2.4792645633 0 1.5975024381 -2.7376842287 0 1.3019854616 -2.9844950338 0 
0.99797037515 -3.2207493161 0 0.68283714316 -3.4417895272 0 0.35070593448 -3.6361764788 0 
0.0042611687527 -3.8038182992 0 -0.37049053418 -3.8857573755 0 -0.72167068027 -3.7490803664 0 
-1.0731233789 -3.5951019653 0 -1.427398718 -3.4469655182 0 -1.7723938344 -3.2787215462 0 
-2.0865362973 -3.0569326506 0 -2.3711959813 -2.7986202871 0 -2.6192575091 -2.5048648408 0 
-2.8244443151 -2.1795608011 0 -2.9954532752 -1.8349811135 0 -3.1288175981 -1.4738522882 0 
-3.2518745176 -1.1091517068 0 -3.3597129353 -0.73970834096 0 -3.4154858652 -0.35932994743 -1.7763568394e-15 
-3.4166680685 0.025357610125 -1.7763568394e-15 -3.3702666353 0.40743788592 -1.7763568394e-15 -3.2886571747 0.7836125956 -1.7763568394e-15 
-1.3423844408 -2.7156302108 -1.394748282 -1.3087937875 -2.8109773109 -1.0420333758 -1.5211384711 -2.5867415823 -1.2176046849 
0.26189606025 3.1995829084 -0.83282742561 0.15467719796 3.1671188923 -0.36730782449 0.47830102078 3.0414705561 -0.48107899103 
-0.6689410353 -3.0344264271 -0.25450420601 -0.31488074891 -2.9952954033 -0.26366140304 2.3697894404 1.0463456755 -0.3725266913 
2.2359372839 1.3884429905 -0.2948821968 -2.0288208894 -1.7355954853 -1.90863378 -2.1194266254 -1.7360730365 -1.5188478339 
-2.2130699179 -1.4594783379 -1.8154747927 -1.9130010757 -1.9796759741 -1.7196109015 -2.7030435053 0.018314882986 -0.32413158825 
-2.6786442982 -0.40158370013 -0.3543453254 0.06599818174 -2.8757107617 -0.33727480068 0.66583238624 2.9052695899 -0.29345811778 
0.96177469712 2.7504104492 -0.34061894807 0.78294776538 2.8968465273 -0.61466982958 -2.7351838811 0.56192671929 -1.0494474458 
-2.7215029938 0.47242725942 -0.68300419549 -2.6958711828 0.8411553806 -0.79761858287 -2.7473711648 0.22169043291 -0.96910965514 
0.42728879341 -2.7075871862 -0.28337670672 0.73535527918 -2.557827547 -0.24367130699 -0.87169622435 3.1206872981 -0.99816642157 
-0.70159807291 3.230367403 -1.248195625 -0.9405985059 3.1090229609 -1.3796119559 -1.5813688234 -2.5789633816 -0.92201362086 
-0.055684713846 -2.9863994224 -0.83891028889 0.21198868345 -2.878645799 -0.91789347458 0.080230474338 -2.9146728471 -0.6409457375 
0.32003771664 -2.7988213603 -0.5723459942 2.0910574579 1.6294883978 -0.19290026177 1.9699738163 1.9414984351 -0.29352650793 
-2.5359320105 1.5746105282 -0.93675294829 -2.3525213451 1.9442538796 -1.0458633658 -2.4939138031 1.7056405173 -1.3195203434 
-0.84170038253 -3.0702215903 -0.81702104601 -1.1070919728 -2.969040508 -0.67123680681 -1.0159219431 -2.9971503206 -0.98230646124 
-2.428789713 1.7481978731 -0.66078618592 -2.540689226 -1.1277745376 -0.58151601589 -2.4439228161 -1.3640112937 -0.31238452732 
-2.5735042952 -1.0230528442 -0.25900993694 2.4781283945 0.6643046826 -0.51279603224 2.4209734975 0.96300963796 -0.85394492408 
-2.4093199849 -1.4288278529 -0.62307086252 2.5959324237 -0.086363672352 -0.33844798979 2.5867915916 -0.35865130573 -0.44554804808 
-2.6322914182 -0.71001859145 -0.23141627443 -2.134340542 1.4273129563 -3.2035932639 -2.4069663472 1.3108955467 -2.7973500398 
-2.1027324185 1.7136966543 -2.936055138 2.3847867624 1.2031713213 -1.6745003067 2.2829911856 1.5498882 -1.7266479861 
2.2873003529 1.4153303954 -1.4645564825 -2.6420473689 -0.78041103579 -0.52383857788 2.5670991819 0.19239551644 -0.25426345897 
2.5228522292 -0.64720444296 -0.38418158489 0.78248374204 -2.5563576881 -0.55751966522 0.96627845974 -2.4553163178 -0.85143776878 
1.0070391907 -2.4198921124 -0.43023290286 -0.51226435743 3.1704667379 -0.35471096575 0.58297877705 -2.6808966432 -0.80185879324 
0.44227456567 -2.7765832908 -1.217585119 0.14301708672 -2.9124190196 -1.248720595 -1.1203413306 0.077819136684 -5.1458305295 
-1.2817052503 0.14950955965 -4.9560404531 -1.1181508203 0.35756393237 -5.146308861 0.34388873245 -2.7629323138 -1.9647291003 
0.21623413997 -2.8625057411 -1.603693631 -0.0008180656928 -2.8564223454 -1.9760908441 2.3823795577 1.3842998114 -1.9590788561 
-1.583368601 -2.4669585394 -1.5078058954 -1.3567650321 -2.6199678839 -1.7631815901 2.476655375 1.1354751784 -2.0330561658 
2.4671243545 0.96561369701 -1.7713787436 1.5637574895 1.250306265 -5.5199949899 1.8115565096 1.0216623429 -5.5761612958 
1.5562255081 1.063128276 -5.7461440682 1.9624715546 -1.5965867958 -0.42991109236 2.2051127828 -1.2716829229 -0.37955301372 
1.6967742129 0.8503343883 -5.8639153149 2.5099579744 0.52023616663 -0.90500649202 2.4619408354 0.70892641174 -1.2280314334 
2.0716392429 1.9727281373 -1.1198854935 2.1910150605 1.6874271776 -1.2296067784 2.1049481253 1.9378252254 -1.4325134471 
-0.72777498747 3.1475241178 -0.64814969806 -1.0308868758 2.9897301406 -0.67441795298 -1.988687323 -1.5529783717 -2.4441079709 
-1.7642051982 -1.8812674075 -2.5103986078 -1.9018468085 -1.7971913971 -2.2363446963 2.1833443982 1.714407621 -0.89926348719 
2.5601852454 -0.48603724422 -0.81509512515 -1.8404181873 -1.6014735519 -2.803603132 -1.8412234625 -1.9790900016 -2.0464620551 
-0.50726368486 3.2734480871 -0.93736327881 -2.6981381231 -0.51511573282 -0.74289682132 -2.696080765 -0.58128426181 -1.1116967829 
-2.6116368033 -0.91221610083 -0.91852868979 -0.20399908213 -3.020415812 -0.58659664857 -2.6674056746 1.1540334709 -1.3366780244 
-2.6678763603 1.0928252409 -1.0625767059 -2.604454121 1.3866230195 -1.1506981586 -1.2492772764 -0.12403898847 -4.9801672882 
2.5213582019 0.44388175501 -0.27951471891 -2.6578208779 1.1779961491 -1.6939703132 -2.7165952331 0.88775228899 -1.4641885384 
-2.6949178003 0.88136325921 -1.8315753029 2.452625352 -0.82835055609 -1.0552725724 2.5167585594 -0.4113657396 -1.286255658 
0.71727464895 -2.2683915889 -3.7641084346 0.73836919017 -2.2912338252 -3.3734172603 0.42542395819 -2.2848876127 -3.5620646036 
-1.7543825699 -2.2349438154 -1.5909195256 -1.7057248327 -2.1873861619 -1.9396191767 -1.5806859263 -2.3952810688 -1.7852487522 
-0.86797225011 -2.7891014668 -2.0973911113 -0.55446597949 -2.8025227109 -2.2266616622 -0.62886153043 -2.9202698759 -1.8813386075 
-0.30838835536 -3.0641894737 -0.95294336932 -1.9569954462 -2.0241760841 -1.3721772508 -1.758907575 -2.3273421842 -1.2008376609 
-2.0232354018 -2.031845608 -0.9634333474 -1.3666577411 -2.7854406535 -0.3656975373 -0.19152931944 3.2811800511 -0.6405306494 
1.5782655022 -1.9676657013 -2.3768288842 1.7543079775 -1.7874641156 -2.1752737445 1.5243457404 -2.025197406 -2.0808656613 
1.8141817164 -1.7139669917 -2.5451266159 -1.4627471496 2.6628317956 -0.44898135185 -1.1698136302 2.8283173343 -0.32263624236 
-1.291582284 2.8236222123 -0.67558724012 -1.5269729909 2.6828723526 -0.82683757886 2.3878157524 -0.9774897336 -0.39830025487 
2.4788305405 -0.80364947144 -0.67689284194 -0.3307641107 -2.8993498472 -2.0107005098 -0.55390576562 -3.1016827076 -0.76189901054 
[...]
CELL_DATA 7343
SCALARS f double
LOOKUP_TABLE default
1.8446744074e+19 1.8446744074e+19 1.8446744074e+19 1.8446744074e+19 1.8446744074e+19 1.8446744074e+19 1.8446744074e+19 1.8446744074e+19 1.8446744074e+19 
1.8446744074e+19 1.8446744074e+19 1.8446744074e+19 1.8446744074e+19 1.8446744074e+19 1.8446744074e+19 1.8446744074e+19 1.8446744074e+19 1.8446744074e+19 
1.8446744074e+19 1.8446744074e+19 1.8446744074e+19 1.8446744074e+19 1.8446744074e+19 1.8446744074e+19 1.8446744074e+19 1.8446744074e+19 1.8446744074e+19 
1.8446744074e+19 1.8446744074e+19 1.8446744074e+19 1.8446744074e+19 1.8446744074e+19 1.8446744074e+19 1.8446744074e+19 1.8446744074e+19 1.8446744074e+19 
1.8446744074e+19 1.8446744074e+19 1.8446744074e+19 1.8446744074e+19 1.8446744074e+19 1.8446744074e+19 1.8446744074e+19 1.8446744074e+19 1.8446744074e+19 
1.8446744074e+19 1.8446744074e+19 1.8446744074e+19 1.8446744074e+19 1.8446744074e+19 1.8446744074e+19 1.8446744074e+19 1.8446744074e+19 1.8446744074e+19 
1.8446744074e+19 1.8446744074e+19 1.8446744074e+19 1.8446744074e+19 1.8446744074e+19 1.8446744074e+19 1.8446744074e+19 1.8446744074e+19 1.8446744074e+19 
1.8446744074e+19 1.8446744074e+19 1.8446744074e+19 1.8446744074e+19 1.8446744074e+19 1.8446744074e+19 1.8446744074e+19 1.8446744074e+19 1.8446744074e+19 
1.8446744074e+19 1.8446744074e+19 1.8446744074e+19 1.8446744074e+19 1.8446744074e+19 1.8446744074e+19 1.8446744074e+19 1.8446744074e+19 1.8446744074e+19 
1.8446744074e+19 1.8446744074e+19 1.8446744074e+19 1.8446744074e+19 1.8446744074e+19 1.8446744074e+19 1.8446744074e+19 1.8446744074e+19 1.8446744074e+19 
1.8446744074e+19 1.8446744074e+19 1.8446744074e+19 1.8446744074e+19 1.8446744074e+19 1.8446744074e+19 1.8446744074e+19 1.8446744074e+19 1.8446744074e+19 
1.8446744074e+19 1.8446744074e+19 1.8446744074e+19 1.8446744074e+19 1.8446744074e+19 1.8446744074e+19 1.8446744074e+19 1.8446744074e+19 1.8446744074e+19 
1.8446744074e+19 1.8446744074e+19 1.8446744074e+19 1.8446744074e+19 1.8446744074e+19 1.8446744074e+19 1.8446744074e+19 1.8446744074e+19 1.8446744074e+19 
1.8446744074e+19 1.8446744074e+19 1.8446744074e+19 1.8446744074e+19 1.8446744074e+19 1.8446744074e+19 1.8446744074e+19 1.8446744074e+19 1.8446744074e+19 
1.8446744074e+19 1.8446744074e+19 1.8446744074e+19 1.8446744074e+19 1.8446744074e+19 1.8446744074e+19 1.8446744074e+19 1.8446744074e+19 1.8446744074e+19 
1.8446744074e+19 1.8446744074e+19 1.8446744074e+19 1.8446744074e+19 1.8446744074e+19 1.8446744074e+19 1.8446744074e+19 1.8446744074e+19 1.8446744074e+19 
1.8446744074e+19 1.8446744074e+19 1.8446744074e+19 1.8446744074e+19 1.8446744074e+19 1.8446744074e+19 1.8446744074e+19 1.8446744074e+19 1.8446744074e+19 
1.8446744074e+19 1.8446744074e+19 1.8446744074e+19 1.8446744074e+19 1.8446744074e+19 1.8446744074e+19 1.8446744074e+19 1.8446744074e+19 1.8446744074e+19 
1.8446744074e+19 1.8446744074e+19 1.8446744074e+19 1.8446744074e+19 1.8446744074e+19 1.8446744074e+19 1.8446744074e+19 1.8446744074e+19 1.8446744074e+19 
1.8446744074e+19 1.8446744074e+19 1.8446744074e+19 1.8446744074e+19 1.8446744074e+19 1.8446744074e+19 1.8446744074e+19 1.8446744074e+19 1.8446744074e+19 
1.8446744074e+19 1.8446744074e+19 1.8446744074e+19 1.8446744074e+19 1.8446744074e+19 1.8446744074e+19 1.8446744074e+19 1.8446744074e+19 1.8446744074e+19 
1.8446744074e+19 1.8446744074e+19 1.8446744074e+19 1.8446744074e+19 1.8446744074e+19 1.8446744074e+19 1.8446744074e+19 1.8446744074e+19 1.8446744074e+19 
1.8446744074e+19 1.8446744074e+19 1.8446744074e+19 1.8446744074e+19 1.8446744074e+19 1.8446744074e+19 1.8446744074e+19 1.8446744074e+19 1.8446744074e+19 
1.8446744074e+19 1.8446744074e+19 1.8446744074e+19 1.8446744074e+19 1.8446744074e+19 1.8446744074e+19 1.8446744074e+19 1.8446744074e+19 1.8446744074e+19 
1.8446744074e+19 1.8446744074e+19 1.8446744074e+19 1.8446744074e+19 1.8446744074e+19 1.8446744074e+19 1.8446744074e+19 1.8446744074e+19 1.8446744074e+19 
1.8446744074e+19 1.8446744074e+19 1.8446744074e+19 1.8446744074e+19 1.8446744074e+19 1.8446744074e+19 1.8446744074e+19 1.8446744074e+19 1.8446744074e+19 
1.8446744074e+19 1.8446744074e+19 1.8446744074e+19 1.8446744074e+19 1.8446744074e+19 1.8446744074e+19 1.8446744074e+19 1.8446744074e+19 1.8446744074e+19 
1.8446744074e+19 1.8446744074e+19 1.8446744074e+19 1.8446744074e+19 1.8446744074e+19 1.8446744074e+19 1.8446744074e+19 1.8446744074e+19 1.8446744074e+19 
1.8446744074e+19 1.8446744074e+19 1.8446744074e+19 1.8446744074e+19 1.8446744074e+19 1.8446744074e+19 1.8446744074e+19 1.8446744074e+19 1.8446744074e+19 
1.8446744074e+19 1.8446744074e+19 1.8446744074e+19 1.8446744074e+19 1.8446744074e+19 1.8446744074e+19 1.8446744074e+19 1.8446744074e+19 1.8446744074e+19 
1.8446744074e+19 1.8446744074e+19 1.8446744074e+19 1.8446744074e+19 1.8446744074e+19 1.8446744074e+19 1.8446744074e+19 1.8446744074e+19 1.8446744074e+19 
1.8446744074e+19 1.8446744074e+19 1.8446744074e+19 1.8446744074e+19 1.8446744074e+19 1.8446744074e+19 1.8446744074e+19 1.8446744074e+19 1.8446744074e+19 
1.8446744074e+19 1.8446744074e+19 1.8446744074e+19 1.8446744074e+19 1.8446744074e+19 1.8446744074e+19 1.8446744074e+19 1.8446744074e+19 1.8446744074e+19 
1.8446744074e+19 1.8446744074e+19 1.8446744074e+19 1.8446744074e+19 1.8446744074e+19 1.8446744074e+19 1.8446744074e+19 1.8446744074e+19 1.8446744074e+19 
1.8446744074e+19 1.8446744074e+19 1.8446744074e+19 1.8446744074e+19 1.8446744074e+19 1.8446744074e+19 1.8446744074e+19 1.8446744074e+19 1.8446744074e+19 
1.8446744074e+19 1.8446744074e+19 1.8446744074e+19 1.8446744074e+19 1.8446744074e+19 1.8446744074e+19 1.8446744074e+19 1.8446744074e+19 1.8446744074e+19 
1.8446744074e+19 1.8446744074e+19 1.8446744074e+19 1.8446744074e+19 1.8446744074e+19 1.8446744074e+19 1.8446744074e+19 1.8446744074e+19 1.8446744074e+19 
1.8446744074e+19 1.8446744074e+19 1.8446744074e+19 1.8446744074e+19 1.8446744074e+19 1.8446744074e+19 1.8446744074e+19 1.8446744074e+19 1.8446744074e+19 
1.8446744074e+19 1.8446744074e+19 1.8446744074e+19 1.8446744074e+19 1.8446744074e+19 1.8446744074e+19 1.8446744074e+19 1.8446744074e+19 1.8446744074e+19 
1.8446744074e+19 1.8446744074e+19 1.8446744074e+19 1.8446744074e+19 1.8446744074e+19 1.8446744074e+19 1.8446744074e+19 1.8446744074e+19 1.8446744074e+19 
1.8446744074e+19 1.8446744074e+19 1.8446744074e+19 1.8446744074e+19 1.8446744074e+19 1.8446744074e+19 1.8446744074e+19 1.8446744074e+19 1.8446744074e+19 
1.8446744074e+19 1.8446744074e+19 1.8446744074e+19 1.8446744074e+19 1.8446744074e+19 1.8446744074e+19 1.8446744074e+19 1.8446744074e+19 1.8446744074e+19 
1.8446744074e+19 1.8446744074e+19 1.8446744074e+19 1.8446744074e+19 1.8446744074e+19 1.8446744074e+19 1.8446744074e+19 1.8446744074e+19 1.8446744074e+19 
1.8446744074e+19 1.8446744074e+19 1.8446744074e+19 1.8446744074e+19 1.8446744074e+19 1.8446744074e+19 1.8446744074e+19 1.8446744074e+19 1.8446744074e+19 
1.8446744074e+19 1.8446744074e+19 1.8446744074e+19 1.8446744074e+19 1.8446744074e+19 1.8446744074e+19 1.8446744074e+19 1.8446744074e+19 1.8446744074e+19 
1.8446744074e+19 1.8446744074e+19 1.8446744074e+19 1.8446744074e+19 1.8446744074e+19 1.8446744074e+19 1.8446744074e+19 1.8446744074e+19 1.8446744074e+19 
1.8446744074e+19 1.8446744074e+19 1.8446744074e+19 1.8446744074e+19 1.8446744074e+19 1.8446744074e+19 1.8446744074e+19 1.8446744074e+19 1.8446744074e+19 
1.8446744074e+19 1.8446744074e+19 1.8446744074e+19 1.8446744074e+19 1.8446744074e+19 1.8446744074e+19 1.8446744074e+19 1.8446744074e+19 1.8446744074e+19 
1.8446744074e+19 1.8446744074e+19 1.8446744074e+19 1.8446744074e+19 1.8446744074e+19 1.8446744074e+19 1.8446744074e+19 1.8446744074e+19 1.8446744074e+19 
1.8446744074e+19 1.8446744074e+19 1.8446744074e+19 1.8446744074e+19 1.8446744074e+19 1.8446744074e+19 1.8446744074e+19 1.8446744074e+19 1.8446744074e+19 
1.8446744074e+19 1.8446744074e+19 1.8446744074e+19 1.8446744074e+19 1.8446744074e+19 1.8446744074e+19 1.8446744074e+19 1.8446744074e+19 1.8446744074e+19 
1.8446744074e+19 1.8446744074e+19 1.8446744074e+19 1.8446744074e+19 1.8446744074e+19 1.8446744074e+19 1.8446744074e+19 1.8446744074e+19 1.8446744074e+19 
1.8446744074e+19 1.8446744074e+19 1.8446744074e+19 1.8446744074e+19 1.8446744074e+19 1.8446744074e+19 1.8446744074e+19 1.8446744074e+19 1.8446744074e+19 
1.8446744074e+19 1.8446744074e+19 1.8446744074e+19 1.8446744074e+19 1.8446744074e+19 1.8446744074e+19 1.8446744074e+19 1.8446744074e+19 1.8446744074e+19 
1.8446744074e+19 1.8446744074e+19 1.8446744074e+19 1.8446744074e+19 1.8446744074e+19 1.8446744074e+19 1.8446744074e+19 1.8446744074e+19 1.8446744074e+19 
1.8446744074e+19 1.8446744074e+19 1.8446744074e+19 1.8446744074e+19 1.8446744074e+19 1.8446744074e+19 1.8446744074e+19 1.8446744074e+19 1.8446744074e+19 
1.8446744074e+19 1.8446744074e+19 1.8446744074e+19 1.8446744074e+19 1.8446744074e+19 1.8446744074e+19 1.8446744074e+19 1.8446744074e+19 1.8446744074e+19 
1.8446744074e+19 1.8446744074e+19 1.8446744074e+19 1.8446744074e+19 1.8446744074e+19 1.8446744074e+19 1.8446744074e+19 1.8446744074e+19 1.8446744074e+19 
1.8446744074e+19 1.8446744074e+19 1.8446744074e+19 1.8446744074e+19 1.8446744074e+19 1.8446744074e+19 1.8446744074e+19 1.8446744074e+19 1.8446744074e+19 
1.8446744074e+19 1.8446744074e+19 1.8446744074e+19 1.8446744074e+19 1.8446744074e+19 1.8446744074e+19 1.8446744074e+19 1.8446744074e+19 1.8446744074e+19 
1.8446744074e+19 1.8446744074e+19 1.8446744074e+19 1.8446744074e+19 1.8446744074e+19 1.8446744074e+19 1.8446744074e+19 1.8446744074e+19 1.8446744074e+19 
1.8446744074e+19 1.8446744074e+19 1.8446744074e+19 1.8446744074e+19 1.8446744074e+19 1.8446744074e+19 1.8446744074e+19 1.8446744074e+19 1.8446744074e+19 
1.8446744074e+19 1.8446744074e+19 1.8446744074e+19 1.8446744074e+19 1.8446744074e+19 1.8446744074e+19 1.8446744074e+19 1.8446744074e+19 1.8446744074e+19 
1.8446744074e+19 1.8446744074e+19 1.8446744074e+19 1.8446744074e+19 1.8446744074e+19 1.8446744074e+19 1.8446744074e+19 1.8446744074e+19 1.8446744074e+19 
1.8446744074e+19 1.8446744074e+19 1.8446744074e+19 1.8446744074e+19 1.8446744074e+19 1.8446744074e+19 1.8446744074e+19 1.8446744074e+19 1.8446744074e+19 
1.8446744074e+19 1.8446744074e+19 1.8446744074e+19 1.8446744074e+19 1.8446744074e+19 1.8446744074e+19 1.8446744074e+19 1.8446744074e+19 1.8446744074e+19 
1.8446744074e+19 1.8446744074e+19 1.8446744074e+19 1.8446744074e+19 1.8446744074e+19 1.8446744074e+19 1.8446744074e+19 1.8446744074e+19 1.8446744074e+19 
1.8446744074e+19 1.8446744074e+19 1.8446744074e+19 1.8446744074e+19 1.8446744074e+19 1.8446744074e+19 1.8446744074e+19 1.8446744074e+19 1.8446744074e+19 
1.8446744074e+19 1.8446744074e+19 1.8446744074e+19 1.8446744074e+19 1.8446744074e+19 1.8446744074e+19 1.8446744074e+19 1.8446744074e+19 1.8446744074e+19 
1.8446744074e+19 1.8446744074e+19 1.8446744074e+19 1.8446744074e+19 1.8446744074e+19 1.8446744074e+19 1.8446744074e+19 1.8446744074e+19 1.8446744074e+19 
1.8446744074e+19 1.8446744074e+19 1.8446744074e+19 1.8446744074e+19 1.8446744074e+19 1.8446744074e+19 1.8446744074e+19 1.8446744074e+19 1.8446744074e+19 
1.8446744074e+19 1.8446744074e+19 1.8446744074e+19 1.8446744074e+19 1.8446744074e+19 1.8446744074e+19 1.8446744074e+19 1.8446744074e+19 1.8446744074e+19 
1.8446744074e+19 1.8446744074e+19 1.8446744074e+19 1.8446744074e+19 1.8446744074e+19 1.8446744074e+19 1.8446744074e+19 1.8446744074e+19 1.8446744074e+19 
1.8446744074e+19 1.8446744074e+19 1.8446744074e+19 1.8446744074e+19 1.8446744074e+19 1.8446744074e+19 1.8446744074e+19 1.8446744074e+19 1.8446744074e+19 
1.8446744074e+19 1.8446744074e+19 1.8446744074e+19 1.8446744074e+19 1.8446744074e+19 1.8446744074e+19 1.8446744074e+19 1.8446744074e+19 1.8446744074e+19 
1.8446744074e+19 1.8446744074e+19 1.8446744074e+19 1.8446744074e+19 1.8446744074e+19 1.8446744074e+19 1.8446744074e+19 1.8446744074e+19 1.8446744074e+19 
1.8446744074e+19 1.8446744074e+19 1.8446744074e+19 1.8446744074e+19 1.8446744074e+19 1.8446744074e+19 1.8446744074e+19 1.8446744074e+19 1.8446744074e+19 
1.8446744074e+19 1.8446744074e+19 1.8446744074e+19 1.8446744074e+19 1.8446744074e+19 1.8446744074e+19 1.8446744074e+19 1.8446744074e+19 1.8446744074e+19 
1.8446744074e+19 1.8446744074e+19 1.8446744074e+19 1.8446744074e+19 1.8446744074e+19 1.8446744074e+19 1.8446744074e+19 1.8446744074e+19 1.8446744074e+19 
1.8446744074e+19 1.8446744074e+19 1.8446744074e+19 1.8446744074e+19 1.8446744074e+19 1.8446744074e+19 1.8446744074e+19 1.8446744074e+19 1.8446744074e+19 
1.8446744074e+19 1.8446744074e+19 1.8446744074e+19 1.8446744074e+19 1.8446744074e+19 1.8446744074e+19 1.8446744074e+19 1.8446744074e+19 1.8446744074e+19 
1.8446744074e+19 1.8446744074e+19 1.8446744074e+19 1.8446744074e+19 1.8446744074e+19 1.8446744074e+19 1.8446744074e+19 1.8446744074e+19 1.8446744074e+19 
1.8446744074e+19 1.8446744074e+19 1.8446744074e+19 1.8446744074e+19 1.8446744074e+19 1.8446744074e+19 1.8446744074e+19 1.8446744074e+19 1.8446744074e+19 
1.8446744074e+19 1.8446744074e+19 1.8446744074e+19 1.8446744074e+19 1.8446744074e+19 1.8446744074e+19 1.8446744074e+19 1.8446744074e+19 1.8446744074e+19 
1.8446744074e+19 1.8446744074e+19 1.8446744074e+19 1.8446744074e+19 1.8446744074e+19 1.8446744074e+19 1.8446744074e+19 1.8446744074e+19 1.8446744074e+19 
1.8446744074e+19 1.8446744074e+19 1.8446744074e+19 1.8446744074e+19 1.8446744074e+19 1.8446744074e+19 1.8446744074e+19 1.8446744074e+19 1.8446744074e+19 
1.8446744074e+19 1.8446744074e+19 1.8446744074e+19 1.8446744074e+19 1.8446744074e+19 1.8446744074e+19 1.8446744074e+19 1.8446744074e+19 1.8446744074e+19 
1.8446744074e+19 1.8446744074e+19 1.8446744074e+19 1.8446744074e+19 1.8446744074e+19 1.8446744074e+19 1.8446744074e+19 1.8446744074e+19 1.8446744074e+19 
1.8446744074e+19 1.8446744074e+19 1.8446744074e+19 1.8446744074e+19 1.8446744074e+19 1.8446744074e+19 1.8446744074e+19 1.8446744074e+19 1.8446744074e+19 
1.8446744074e+19 1.8446744074e+19 1.8446744074e+19 1.8446744074e+19 1.8446744074e+19 1.8446744074e+19 1.8446744074e+19 1.8446744074e+19 1.8446744074e+19 
1.8446744074e+19 1.8446744074e+19 1.8446744074e+19 1.8446744074e+19 1.8446744074e+19 1.8446744074e+19 1.8446744074e+19 1.8446744074e+19 1.8446744074e+19 
1.8446744074e+19 1.8446744074e+19 1.8446744074e+19 1.8446744074e+19 1.8446744074e+19 1.8446744074e+19 1.8446744074e+19 1.8446744074e+19 1.8446744074e+19 
1.8446744074e+19 1.8446744074e+19 1.8446744074e+19 1.8446744074e+19 1.8446744074e+19 1.8446744074e+19 1.8446744074e+19 1.8446744074e+19 1.8446744074e+19 
1.8446744074e+19 1.8446744074e+19 1.8446744074e+19 1.8446744074e+19 1.8446744074e+19 1.8446744074e+19 1.8446744074e+19 1.8446744074e+19 1.8446744074e+19 
1.8446744074e+19 1.8446744074e+19 1.8446744074e+19 1.8446744074e+19 1.8446744074e+19 1.8446744074e+19 1.8446744074e+19 1.8446744074e+19 1.8446744074e+19 
1.8446744074e+19 1.8446744074e+19 1.8446744074e+19 1.8446744074e+19 1.8446744074e+19 1.8446744074e+19 1.8446744074e+19 1.8446744074e+19 1.8446744074e+19 
1.8446744074e+19 1.8446744074e+19 1.8446744074e+19 1.8446744074e+19 1.8446744074e+19 1.8446744074e+19 1.8446744074e+19 1.8446744074e+19 1.8446744074e+19 
1.8446744074e+19 1.8446744074e+19 1.8446744074e+19 1.8446744074e+19 1.8446744074e+19 1.8446744074e+19 1.8446744074e+19 1.8446744074e+19 1.8446744074e+19 
1.8446744074e+19 1.8446744074e+19 1.8446744074e+19 1.8446744074e+19 1.8446744074e+19 1.8446744074e+19 1.8446744074e+19 1.8446744074e+19 1.8446744074e+19 
1.8446744074e+19 1.8446744074e+19 1.8446744074e+19 1.8446744074e+19 1.8446744074e+19 1.8446744074e+19 1.8446744074e+19 1.8446744074e+19 1.8446744074e+19 
1.8446744074e+19 1.8446744074e+19 1.8446744074e+19 1.8446744074e+19 1.8446744074e+19 1.8446744074e+19 1.8446744074e+19 1.8446744074e+19 1.8446744074e+19 
1.8446744074e+19 1.8446744074e+19 1.8446744074e+19 1.8446744074e+19 1.8446744074e+19 1.8446744074e+19 1.8446744074e+19 1.8446744074e+19 1.8446744074e+19 
1.8446744074e+19 1.8446744074e+19 1.8446744074e+19 1.8446744074e+19 1.8446744074e+19 1.8446744074e+19 1.8446744074e+19 1.8446744074e+19 1.8446744074e+19 
1.8446744074e+19 1.8446744074e+19 1.8446744074e+19 1.8446744074e+19 1.8446744074e+19 1.8446744074e+19 1.8446744074e+19 1.8446744074e+19 1.8446744074e+19 
1.8446744074e+19 1.8446744074e+19 1.8446744074e+19 1.8446744074e+19 1.8446744074e+19 1.8446744074e+19 1.8446744074e+19 1.8446744074e+19 1.8446744074e+19 
1.8446744074e+19 1.8446744074e+19 1.8446744074e+19 1.8446744074e+19 1.8446744074e+19 1.8446744074e+19 1.8446744074e+19 1.8446744074e+19 1.8446744074e+19 
1.8446744074e+19 1.8446744074e+19 1.8446744074e+19 1.8446744074e+19 1.8446744074e+19 1.8446744074e+19 1.8446744074e+19 1.8446744074e+19 1.8446744074e+19 
1.8446744074e+19 1.8446744074e+19 1.8446744074e+19 1.8446744074e+19 1.8446744074e+19 1.8446744074e+19 1.8446744074e+19 1.8446744074e+19 1.8446744074e+19 
1.8446744074e+19 1.8446744074e+19 1.8446744074e+19 1.8446744074e+19 1.8446744074e+19 1.8446744074e+19 1.8446744074e+19 1.8446744074e+19 1.8446744074e+19 
1.8446744074e+19 1.8446744074e+19 1.8446744074e+19 1.8446744074e+19 1.8446744074e+19 1.8446744074e+19 1.8446744074e+19 1.8446744074e+19 1.8446744074e+19 
1.8446744074e+19 1.8446744074e+19 1.8446744074e+19 1.8446744074e+19 1.8446744074e+19 1.8446744074e+19 1.8446744074e+19 1.8446744074e+19 1.8446744074e+19 
1.8446744074e+19 1.8446744074e+19 1.8446744074e+19 1.8446744074e+19 1.8446744074e+19 1.8446744074e+19 1.8446744074e+19 1.8446744074e+19 1.8446744074e+19 
1.8446744074e+19 1.8446744074e+19 1.8446744074e+19 1.8446744074e+19 1.8446744074e+19 1.8446744074e+19 1.8446744074e+19 1.8446744074e+19 1.8446744074e+19 
1.8446744074e+19 1.8446744074e+19 1.8446744074e+19 1.8446744074e+19 1.8446744074e+19 1.8446744074e+19 1.8446744074e+19 1.8446744074e+19 1.8446744074e+19 
1.8446744074e+19 1.8446744074e+19 1.8446744074e+19 1.8446744074e+19 1.8446744074e+19 1.8446744074e+19 1.8446744074e+19 1.8446744074e+19 1.8446744074e+19 
1.8446744074e+19 1.8446744074e+19 1.8446744074e+19 1.8446744074e+19 1.8446744074e+19 1.8446744074e+19 1.8446744074e+19 1.8446744074e+19 1.8446744074e+19 
1.8446744074e+19 1.8446744074e+19 1.8446744074e+19 1.8446744074e+19 1.8446744074e+19 1.8446744074e+19 1.8446744074e+19 1.8446744074e+19 1.8446744074e+19 
1.8446744074e+19 1.8446744074e+19 1.8446744074e+19 1.8446744074e+19 1.8446744074e+19 1.8446744074e+19 1.8446744074e+19 1.8446744074e+19 1.8446744074e+19 
1.8446744074e+19 1.8446744074e+19 1.8446744074e+19 1.8446744074e+19 1.8446744074e+19 1.8446744074e+19 1.8446744074e+19 1.8446744074e+19 1.8446744074e+19 
1.8446744074e+19 1.8446744074e+19 1.8446744074e+19 1.8446744074e+19 1.8446744074e+19 1.8446744074e+19 1.8446744074e+19 1.8446744074e+19 1.8446744074e+19 
1.8446744074e+19 1.8446744074e+19 1.8446744074e+19 1.8446744074e+19 1.8446744074e+19 1.8446744074e+19 1.8446744074e+19 1.8446744074e+19 1.8446744074e+19 
1.8446744074e+19 1.8446744074e+19 1.8446744074e+19 1.8446744074e+19 1.8446744074e+19 1.8446744074e+19 1.8446744074e+19 1.8446744074e+19 1.8446744074e+19 
1.8446744074e+19 1.8446744074e+19 1.8446744074e+19 1.8446744074e+19 1.8446744074e+19 1.8446744074e+19 1.8446744074e+19 1.8446744074e+19 1.8446744074e+19 
1.8446744074e+19 1.8446744074e+19 1.8446744074e+19 1.8446744074e+19 1.8446744074e+19 1.8446744074e+19 1.8446744074e+19 1.8446744074e+19 1.8446744074e+19 
1.8446744074e+19 1.8446744074e+19 1.8446744074e+19 1.8446744074e+19 1.8446744074e+19 1.8446744074e+19 1.8446744074e+19 1.8446744074e+19 1.8446744074e+19 
1.8446744074e+19 1.8446744074e+19 1.8446744074e+19 1.8446744074e+19 1.8446744074e+19 1.8446744074e+19 1.8446744074e+19 1.8446744074e+19 1.8446744074e+19 
1.8446744074e+19 1.8446744074e+19 1.8446744074e+19 1.8446744074e+19 1.8446744074e+19 1.8446744074e+19 1.8446744074e+19 1.8446744074e+19 1.8446744074e+19 
1.8446744074e+19 1.8446744074e+19 1.8446744074e+19 1.8446744074e+19 1.8446744074e+19 1.8446744074e+19 1.8446744074e+19 1.8446744074e+19 1.8446744074e+19 
1.8446744074e+19 1.8446744074e+19 1.8446744074e+19 1.8446744074e+19 1.8446744074e+19 1.8446744074e+19 1.8446744074e+19 1.8446744074e+19 1.8446744074e+19 