# vtk DataFile Version 5.1
vtk output
ASCII
DATASET UNSTRUCTURED_GRID
POINTS 2395 float
-0.813185 2.31184 -1.77636e-15 -2.74661 0.998522 -1.77636e-15 -1.07688 2.15544 -1.77636e-15 
-1.334 1.97581 -1.77636e-15 -1.57453 1.77791 -1.77636e-15 -1.77976 1.51622 -1.77636e-15 
-1.94829 1.21078 -1.77636e-15 -2.05772 0.898117 -1.77636e-15 -2.09131 0.52211 -1.77636e-15 
-2.08879 0.168756 -1.77636e-15 -2.07336 -0.18631 -1.77636e-15 -2.02303 -0.558652 -1.77636e-15 
-1.98047 -0.932966 0 -1.89021 -1.30014 0 -1.71089 -1.62206 0 
-1.51973 -1.93051 0 -1.29264 -2.19459 0 -1.04269 -2.4341 0 
-0.741491 -2.60512 0 -0.430067 -2.64346 0 -0.0449623 -2.5931 0 
0.257307 -2.3178 0 0.540384 -2.1391 0 0.835719 -1.93643 0 
1.1415 -1.80452 0 1.54724 -1.8001 0 1.79399 -1.63943 0 
1.98857 -1.50124 0 2.13872 -1.27719 0 2.30094 -1.00605 0 
2.38224 -0.652877 0 2.48205 -0.328828 -1.77636e-15 2.44989 0.0104704 -1.77636e-15 
2.37393 0.320856 -1.77636e-15 2.22882 0.601716 -1.77636e-15 2.02927 0.8905 -0.0198308 
1.80896 1.08085 -1.77636e-15 1.61178 1.30683 -1.77636e-15 1.40356 1.57259 0 
1.1685 1.78285 -1.77636e-15 0.918659 2.00371 -1.77636e-15 0.670452 2.25861 -1.77636e-15 
0.387763 2.46944 -1.77636e-15 0.0968637 2.64056 -1.77636e-15 -0.226423 2.63085 -1.77636e-15 
-0.53372 2.48938 -1.77636e-15 -2.63943 1.36592 -1.77636e-15 -2.47733 1.69733 -1.77636e-15 
-2.26303 1.98155 -1.77636e-15 -2.05822 2.29405 -1.77636e-15 -1.83863 2.56117 -1.77636e-15 
-1.614 2.8086 -1.77636e-15 -1.34541 3.05213 -1.77636e-15 -1.04014 3.20024 -1.77636e-15 
-0.712686 3.27772 -1.77636e-15 -0.358984 3.31801 -1.77636e-15 -0.0216668 3.32596 -1.77636e-15 
0.321195 3.2689 -1.77636e-15 0.666376 3.16877 -1.77636e-15 0.97926 2.96681 -1.77636e-15 
1.32279 2.74958 -1.77636e-15 1.67048 2.55451 -1.77636e-15 2.05573 2.39028 -1.77636e-15 
2.4128 2.24017 -1.77636e-15 2.64651 2.06888 -1.77636e-15 2.82848 1.80372 -0.0244774 
2.97061 1.49731 -0.00116069 3.07478 1.17103 -0.0351288 3.10964 0.851993 -0.153365 
3.11448 0.509198 -0.00541267 3.04575 0.185298 -0.0886204 2.98648 -0.144453 -0.0418994 
2.9368 -0.487841 -0.089588 2.86444 -0.836141 -0.0890183 2.75964 -1.15975 -0.034272 
2.6215 -1.43524 0 2.44535 -1.683 0 2.23704 -1.91814 -0.00121258 
2.04464 -2.13781 0 1.84696 -2.33909 0 1.62789 -2.53398 0 
1.37812 -2.74908 0 1.12437 -2.93098 0 0.80426 -3.18586 0 
0.446186 -3.45299 0 0.0167498 -3.62385 0 -0.366398 -3.5792 0 
-0.697421 -3.48768 0 -1.04266 -3.4021 0 -1.4009 -3.27116 0 
-1.68558 -3.06114 0 -1.96371 -2.80209 0 -2.20695 -2.49886 0 
-2.4087 -2.16746 0 -2.5754 -1.81884 0 -2.70547 -1.46207 0 
-2.81375 -1.1145 0 -2.90677 -0.765069 0 -2.95127 -0.417363 -1.77636e-15 
-2.94695 -0.0757072 -1.77636e-15 -2.88468 0.265698 -1.77636e-15 -2.82471 0.625901 -1.77636e-15 
-1.08617 -2.63356 -1.23283 -1.02063 -2.66791 -0.911246 -1.26493 -2.50467 -1.05569 
0.215813 2.8517 -0.843861 0.121692 2.75241 -0.394806 0.407385 2.63279 -0.496262 
-0.25673 -2.75188 -0.190894 0.0626386 -2.60973 -0.190183 2.10931 0.911547 -0.392235 
1.95817 1.15349 -0.263046 -1.74645 -1.68867 -1.68347 -1.81742 -1.70025 -1.32482 
-1.85214 -1.4417 -1.60886 -1.611 -1.94385 -1.52558 -2.03044 -0.0706332 -0.250812 
-2.01641 -0.469118 -0.274087 0.362227 -2.37643 -0.247874 0.525306 2.4412 -0.285315 
0.759499 2.23748 -0.29691 0.593387 2.46777 -0.587726 -2.07767 0.42884 -0.936257 
-2.0306 0.333926 -0.583005 -2.04066 0.674388 -0.68714 -2.05504 0.107179 -0.866124 
0.640896 -2.11617 -0.210832 0.902172 -1.95358 -0.191276 -0.748238 2.77055 -0.938811 
-0.628661 2.95868 -1.15616 -0.822694 2.82349 -1.24595 -1.25728 -2.50678 -0.790467 
0.188109 -2.56266 -0.726511 0.363706 -2.4502 -0.780832 0.324024 -2.49094 -0.528546 
0.512301 -2.30738 -0.460914 1.79984 1.2989 -0.114586 1.66929 1.51532 -0.160953 
-2.01599 1.34902 -0.820949 -1.94195 1.66658 -0.938631 -2.02686 1.47397 -1.20395 
-0.497617 -2.8504 -0.719018 -0.758752 -2.8063 -0.569142 -0.727754 -2.85408 -0.851519 
-1.97862 1.48964 -0.552764 -1.95879 -1.15346 -0.476182 -1.8857 -1.36882 -0.241924 
-1.97829 -1.05648 -0.188727 2.24011 0.648994 -0.581408 2.13533 0.905327 -0.865162 
-1.86449 -1.43375 -0.525997 2.41192 -0.00309923 -0.432201 2.39936 -0.249988 -0.523527 
-2.00574 -0.761014 -0.157084 -1.773 1.32704 -3.00398 -2.03355 1.19046 -2.61475 
-1.75777 1.54143 -2.73165 2.06634 1.1916 -1.6646 1.94078 1.44608 -1.64253 
1.95895 1.34478 -1.42143 -2.02738 -0.821187 -0.435409 2.37448 0.245368 -0.352912 
2.40841 -0.61578 -0.472222 0.884018 -1.99121 -0.487131 0.962443 -1.91521 -0.788282 
1.08292 -1.84864 -0.388077 -0.398939 2.77653 -0.385008 0.722333 -2.14198 -0.704567 
0.515249 -2.34637 -1.05178 0.294734 -2.48398 -1.11166 -0.88947 0.206431 -4.65757 
-1.05083 0.278121 -4.46778 -0.865484 0.41379 -4.73819 0.390227 -2.40967 -1.7439 
0.262888 -2.46726 -1.40698 0.0455199 -2.50316 -1.75526 2.0549 1.35779 -1.92603 
-1.32716 -2.38489 -1.34589 -1.14875 -2.53543 -1.56849 2.14917 1.10896 -2 
2.14868 0.954044 -1.76148 1.51 1.18349 -5.1931 1.72201 1.00336 -5.23959 
1.51381 1.04755 -5.39143 1.93144 -1.41966 -0.424132 2.13069 -1.17699 -0.403624 
1.65436 0.834756 -5.5092 2.25567 0.558506 -0.962782 2.17588 0.727433 -1.25725 
1.72547 1.65585 -0.934735 1.8551 1.47661 -1.11685 1.75126 1.68596 -1.26857 
-0.598635 2.76957 -0.623945 -0.860954 2.5989 -0.614235 -1.69669 -1.48121 -2.19231 
-1.51282 -1.77258 -2.26188 -1.61948 -1.75027 -2.01118 1.85482 1.44658 -0.767269 
2.35143 -0.352396 -0.855007 -1.58904 -1.49279 -2.55509 -1.60865 -1.90571 -1.81601 
-0.450006 2.96484 -0.915491 -2.03553 -0.586065 -0.637348 -2.07894 -0.638506 -0.981853 
-2.04018 -0.943343 -0.78867 0.117023 -2.61069 -0.494925 -2.09793 0.975459 -1.2188 
-2.07839 0.896856 -0.946379 -2.07761 1.17958 -1.03428 -1.01841 0.00457274 -4.49191 
2.31593 0.461257 -0.374378 -2.17688 0.986217 -1.57199 -2.16784 0.737842 -1.33275 
-2.24309 0.747634 -1.66321 2.22269 -0.667716 -1.05993 2.27306 -0.289449 -1.30986 
0.661753 -1.92858 -3.30234 0.646306 -1.87364 -2.92318 0.483648 -1.89083 -3.13899 
-1.51337 -2.17969 -1.38801 -1.46472 -2.13213 -1.73671 -1.37267 -2.31074 -1.59056 
-0.687348 -2.64003 -1.92641 -0.426037 -2.55754 -2.05484 -0.469424 -2.69415 -1.72303 
-0.0365481 -2.7196 -0.841054 -1.60553 -1.99185 -1.21155 -1.4701 -2.277 -1.03239 
-1.60891 -2.00195 -0.837154 -0.916529 -2.64229 -0.311244 -0.177066 2.95566 -0.650849 
1.36843 -1.52804 -2.0845 1.48412 -1.40272 -1.983 1.30556 -1.57222 -1.8752 
1.55365 -1.32646 -2.27692 -1.19126 2.26382 -0.397913 -0.932048 2.40544 -0.291466 
-1.07739 2.40918 -0.61593 -1.25862 2.28669 -0.737385 2.29621 -0.908289 -0.43922 
2.34071 -0.784541 -0.734395 -0.202335 -2.65437 -1.83888 -0.233894 -2.83671 -0.658858 
-0.332213 1.4937 -4.69605 -0.413533 1.70044 -4.47092 -0.237495 1.66626 -4.69547 
-0.0126019 3.03758 -1.95341 0.228482 3.01187 -1.67444 0.408157 2.95592 -1.99474 
-1.24674 -2.48298 -0.463191 -1.41203 -2.20714 -0.301892 -1.46199 -2.2872 -0.630618 
-1.20852 -2.43437 -0.196024 -1.0618 -2.66426 -0.59058 -0.657276 2.53944 -0.279369 
-1.82924 -1.65428 -0.72992 -1.92557 -1.32483 -0.793479 -1.90624 -1.52193 -1.03071 
2.33268 0.31723 -0.67078 1.22299 2.342 -3.67963 1.03833 2.50433 -3.29102 
1.34283 2.26642 -3.3956 0.914941 -1.85038 -3.18006 0.905648 2.45659 -3.69271 
0.792695 2.69344 -3.35057 0.665084 2.80351 -3.01379 0.917874 2.65869 -2.95143 
-2.05384 -1.00975 -1.34749 -1.99359 -1.17575 -1.08316 -2.05509 -0.91086 -1.10508 
-1.59217 -2.04115 -0.530833 0.449576 2.89015 -1.61957 -0.133905 -2.76806 -0.399451 
-0.4332 -2.85586 -0.430574 1.96843 -0.834668 -2.40622 2.10791 -0.511931 -2.33111 
2.01091 -0.677727 -1.96473 2.26515 0.273347 -1.79669 2.25204 0.417701 -1.37027 
2.26726 0.0751489 -1.38705 1.98268 -1.35244 -0.798397 2.21046 -1.05524 -0.773215 
2.12988 -0.391328 -1.90846 -1.41044 2.14217 -0.514175 -2.07093 0.565235 -0.262199 
-2.03617 0.247394 -0.232034 -1.95266 -1.33493 -1.34258 0.751437 2.86993 -2.75789 
-1.62267 -1.88346 -0.295201 -0.691871 2.83799 -2.11406 -0.922911 2.61495 -2.01073 
-0.9134 2.75245 -1.78102 -2.142 -0.682281 -1.31723 -2.19492 -0.32755 -1.42968 
-2.11322 -0.576156 -1.79351 -2.00768 1.39515 -0.279409 -2.0148 1.17491 -0.441343 
-0.614364 -2.75915 -0.22977 -0.887807 2.65646 -2.33486 2.02298 -0.945185 -3.08833 
1.83103 -1.20892 -3.14785 1.98508 -1.16674 -3.49365 0.699897 2.72033 -1.72352 
0.967104 2.57364 -1.49475 1.03186 2.65397 -1.83276 1.25411 2.28382 -1.50654 
1.65803 -1.19672 -1.80203 1.81982 -1.05231 -1.58268 1.63057 -1.30366 -1.45357 
1.86188 -1.09218 -1.22052 -2.14382 0.451446 -1.24955 -2.07932 0.688218 -1.06052 
-1.35352 0.532289 -4.09767 -1.23796 0.169396 -4.28919 -1.50428 0.197332 -3.95008 
-1.77633 -1.63605 -0.39171 -1.06845 0.541355 -4.45257 2.11195 -0.645304 -1.67182 
1.97497 -0.867459 -1.71494 1.85021 -0.962619 -2.02413 1.75901 -1.14914 -2.7552 
-1.84594 -1.17561 -2.11426 -1.96943 -0.800335 -2.1298 -1.84092 -0.932705 -2.42926 
-1.69284 1.87948 -0.391735 -1.86903 1.72975 -0.62899 -1.83385 1.66014 -0.24952 
-1.31253 -0.757342 -3.82826 -1.45802 -0.438896 -3.83185 -1.25858 -0.48562 -4.0798 
-1.49035 -0.737463 -3.53232 -1.22165 -2.32515 -1.93185 -1.74839 -1.84415 -0.534243 
-2.20543 0.494921 -2.28029 -2.19695 0.760796 -2.49396 -2.1073 0.422258 -2.65995 
-2.17742 0.718542 -2.20252 -1.27688 2.19076 -2.35528 -1.38813 2.2415 -1.88548 
-1.125 2.42294 -2.14941 -1.60721 1.98436 -2.09211 -0.972549 2.4498 -2.54322 
-1.08482 2.29632 -2.81775 -2.10518 1.25285 -1.4034 -0.120142 3.03584 -1.04137 
-1.42857 2.25582 -1.45622 -1.62342 2.07761 -1.67608 -1.14417 2.46229 -1.69237 
-1.82722 1.88135 -1.78994 -1.73165 1.99284 -1.423 -1.94408 1.73782 -1.42952 
-1.60936 2.07595 -1.11936 -0.808331 -2.67948 -1.67162 -0.955382 -2.51395 -1.96608 
1.17619 -1.7395 -0.591234 1.37741 -1.57198 -0.748264 1.58856 -1.77492 -0.351423 
1.18984 -1.71767 -0.923402 -0.601664 1.432 -4.53259 2.3843 -0.0179172 -0.795668 
-1.01076 2.51928 -0.996621 -0.828366 -2.80343 -1.12142 -0.121264 2.82296 -0.297412 
1.69512 -1.14179 -2.06573 -0.930889 2.36595 -3.08644 -0.719465 2.52964 -3.2896 
-0.844439 2.30807 -3.42369 -0.567107 -2.79029 -1.37933 -0.438265 -2.86036 -1.00394 
[...]
POINT_DATA 2395
FIELD FieldData 6
fiber%20vectors 3 2395 double
-0.16116663307 -0.55477680986 0.81624016541 -0.66758595415 -0.44948828127 -0.59353961858 -0.21043954668 -0.49934956172 0.84045536015 
-0.036029674446 -0.66603269014 0.74505188962 -0.043149602369 -0.72398617459 0.68846360166 -0.1313702598 -0.66673168074 0.73362846233 
-0.18841236883 -0.58291408075 0.79038721759 -0.28699445273 -0.71138447465 0.64153434306 -0.065988677081 -0.75440724036 0.65308131974 
0.017352961731 -0.69932703579 0.71459119204 0.009324753571 -0.67614029804 0.73671388363 0.11457512769 -0.698920197 0.70596253324 
0.24208906817 -0.65524459147 0.71557487967 0.29829092047 -0.53265750807 0.7920217837 0.38585150446 -0.43844371028 0.81171776463 
0.43512511791 -0.42591341952 0.7932615526 0.48695812493 -0.38167452506 0.78561844523 0.5141694052 -0.18053164861 0.8384737006 
0.56310369849 -0.14541286375 0.81349205516 0.58688272313 0.23254901484 0.77555762196 0.56248846969 0.35008207498 0.7490322171 
0.49981389115 0.37460058118 0.78093564318 0.46463674532 0.27438321101 0.84191837396 0.43025142931 0.25020389734 0.86734175348 
0.47397585256 0.052380943048 0.87897845707 0.29588151334 0.23347782073 0.92625171378 0.28259006496 0.17022285677 0.94401643747 
0.35095971771 0.16003720141 0.9226133376 0.26293984175 0.26097937194 0.92884466249 0.134088658 0.33941290561 0.93103120855 
-0.024972187716 0.41033786733 0.91159158864 -0.30928395528 0.40969258613 0.8581931134 -0.26989861137 0.37791158512 0.88562834948 
-0.29286267894 0.30563869393 0.90598920526 -0.37876811261 0.27685080714 0.88311287357 -0.65132382932 0.310786035 0.69223501053 
-0.6984401566 0.44693994637 0.55895083145 -0.68861967562 0.57895501619 0.43659366873 -0.60576816047 0.55653908834 0.56860283056 
-0.57108004633 0.30931630632 0.76038871857 -0.52467623993 0.2278788795 0.82023536838 -0.5042786012 0.016360328899 0.86338602723 
-0.4999394691 -0.12803509109 0.85654395257 -0.4822060678 -0.19288361924 0.85456024808 -0.41911191084 -0.34973307658 0.83787348767 
-0.34392282574 -0.47683561492 0.80891587095 -0.76524772967 -0.26547891995 -0.5864442474 -0.79172019797 -0.24540617853 -0.55942375323 
-0.84028586291 -0.2075069685 -0.50085978738 -0.64035668246 -0.22909356553 -0.73311626463 -0.52689602879 -0.17904212848 -0.830857684 
-0.57625586544 -0.15017712832 -0.80335297826 -0.54645388339 -0.13882389223 -0.82590319062 -0.54420114382 0.057593739612 -0.83697555294 
-0.50277235868 0.40021690689 -0.76618952146 -0.56185943456 0.33842607642 -0.75483890109 -0.36864114022 0.42951629299 -0.82439035887 
-0.40353602081 0.43483844183 -0.80503056428 -0.37475467812 0.47762564691 -0.79462737974 -0.32664092377 0.49644472926 -0.8042688218 
-0.31812240504 0.52486382674 -0.7895037041 -0.402829416 0.5329955113 -0.74407274277 -0.28313995086 0.42090500451 -0.86178346782 
-0.23023674156 0.34374696266 -0.91040049896 -0.058493013767 0.4622725907 -0.88480654339 -0.099593476201 0.24845145711 -0.9635107747 
-0.15822837731 0.23201915247 -0.9597556426 -0.026508442605 0.19509445561 -0.98042616033 0.083509701378 0.36327650539 -0.92793119918 
0.0050677613582 0.35703574278 -0.93407697551 0.042999235877 0.33740332461 -0.94037761684 0.026258582904 0.43545187067 -0.89982895883 
0.056495922676 0.44956057727 -0.89146143948 0.16798276851 0.47585906811 -0.86333072272 0.22665374387 0.44400819891 -0.86688222942 
0.26564955823 0.41485955439 -0.87024241585 0.32088241454 0.41755404926 -0.85010769434 0.43630384365 0.28346014609 -0.85398436847 
0.57909131109 0.22842775088 -0.78260719141 0.55412699684 0.26643383387 -0.78864205033 0.65622778351 0.38355501468 -0.64980816159 
0.76924491406 0.46530207669 -0.43789980545 0.89197066015 0.089089931453 -0.44322829958 0.76458229935 0.15751976173 -0.62498114546 
0.84944538897 0.18001667066 -0.49602069457 0.85161206806 -0.078615161138 -0.51824370905 0.44271404082 -0.65253349663 -0.61498318175 
0.55422530169 -0.63891814046 -0.53349594634 0.56760148796 -0.41571004421 -0.71064316644 0.58178366084 -0.23857330391 -0.77756707148 
0.58447557715 -0.28214973942 -0.76077580421 0.55006557258 -0.3826545359 -0.74229601374 0.42392679958 -0.4493866829 -0.78634450328 
0.3233928421 -0.54876000935 -0.77089527292 0.25156748596 -0.59008866505 -0.7671435116 0.14361169963 -0.66373130233 -0.73405479226 
0.13558458072 -0.61715167644 -0.77507459624 0.064111247011 -0.60640769203 -0.79256511345 -0.03832604824 -0.58103378398 -0.81297654081 
-0.41785006476 -0.51982948284 -0.74510310169 -0.45296547383 -0.4914579544 -0.74383557227 -0.56232495195 -0.47432527162 -0.67735233455 
0.25353821446 -0.48589431361 0.83643594483 0.17673980153 -0.55295119144 0.81425304571 0.16480170686 -0.54899578104 0.81941688402 
-0.52895156784 0.12079101927 0.84001176691 -0.52612863699 -0.22346149226 0.82052033419 -0.44686668328 0.028167540374 0.89415700917 
0.61151982884 0.37025461315 0.69925318761 0.50193529673 0.36886381873 0.78230457057 -0.66242936038 0.34484154506 0.66503507525 
-0.44270796664 0.4344912844 0.78436406092 -0.0011064880466 -0.59883043008 0.80087507871 0.031295827863 -0.58944818878 0.80719972987 
-0.024752344423 -0.6107120139 0.7914658284 0.078602467765 -0.57955151885 0.81113604843 -0.04837593032 -0.50750463108 0.86028996205 
0.072749913084 -0.51479356893 0.85422188659 0.44187529107 0.21859098765 0.87003689994 -0.47686373161 -0.024298663112 0.87864131274 
-0.39473530306 0.17199784047 0.90255237155 -0.41720341646 -0.017584865517 0.90864298919 0.068440755069 -0.51175887489 0.85639869046 
0.09321621587 -0.48624340375 0.86883720535 0.076055429611 -0.48967312564 0.86858263951 0.030081014 -0.50621503035 0.86188251847 
0.40872372127 0.25487524675 0.8763466941 0.39351751018 0.16688777426 0.90404227776 -0.44331854689 -0.35791255156 0.82180732013 
-0.48936972932 -0.30227605076 0.81801372676 -0.47525928266 -0.23232230765 0.84861944334 0.14075191784 -0.53193772595 0.83500368463 
0.44979535304 0.19704121988 0.87112507601 0.45814025283 0.20495364212 0.86492861747 0.40568116921 0.24455773234 0.88068967548 
0.40040150209 0.2171721908 0.89023304627 -0.36208892436 0.52778648133 0.76833133541 -0.79905252792 0.088882249454 0.5946553652 
-0.11860765433 -0.449605012 0.88531777206 -0.1665326671 -0.44647099567 0.87916467218 -0.14639851348 -0.41780236703 0.8966652984 
0.41101537073 -0.33088808158 0.84945832299 0.42072850857 -0.26554130731 0.86745336254 0.40746524913 -0.32623594335 0.85296083147 
-0.049010564995 -0.47557864277 0.87830684789 0.10960471619 -0.53182072402 0.83973419824 0.30319833307 -0.36664216555 0.87957051637 
0.2468829276 -0.48253323435 0.84036331299 -0.42398321887 0.41087992073 0.80710341398 -0.32146133028 0.50708207402 0.79970643573 
0.20228453237 -0.49850018611 0.84295820324 -0.33273193773 0.45337528686 0.82688590923 -0.19917320163 0.53752842523 0.81938588456 
0.054072279472 -0.57127084386 0.81897851715 -0.59924437806 -0.16345738944 0.78370138267 -0.3560657674 -0.40167665312 0.84372568743 
-0.58349923546 -0.089914980381 0.80712077071 -0.4767184383 0.43251094963 0.76529328302 -0.47879514208 0.45245175171 0.75235804262 
-0.3617592014 0.4899555284 0.79314176563 0.17968499206 -0.48419560969 0.85631064176 -0.39298101975 0.34216489039 0.85351573266 
0.099384619348 0.42467079428 0.89987633257 0.31111393131 0.13234278825 0.94111290935 0.36904421084 0.13848541919 0.91903653851 
0.28796476623 0.11949381899 0.9501565769 -0.35725424217 -0.49451178171 0.79235566774 0.37921477791 0.20441108237 0.90244792737 
0.49437382586 0.073708790371 0.86611866076 0.53935107027 0.0084974672771 0.84203813218 -0.55209988153 -0.6047137256 0.57402702975 
-0.54803586462 -0.62911118007 0.55124932127 -0.75733063342 -0.44457846486 0.47833074359 0.59588435134 0.0097360988001 0.80301123791 
0.57212874892 -0.11929202713 0.81144199233 0.5883815346 -0.15023758984 0.79450351562 -0.47521024268 0.4463730573 0.75823895902 
0.070059829596 -0.58118978924 0.81074659984 0.18100308643 -0.52372243932 0.83243779903 -0.45905794215 0.48214117684 0.74619413784 
-0.4633597945 0.46197608408 0.75622470112 -0.20702303151 0.72604241844 0.65574680407 -0.074795269493 0.72347483074 0.68628699313 
-0.086165808249 0.793853348 0.60197368327 0.27010402328 0.29328996662 0.9170740494 0.24653610433 0.27936401191 0.92799552699 
-0.044498245319 0.73431765502 0.67734591435 -0.28247113215 0.48558491425 0.82729520158 -0.42224015988 0.43811282283 0.79358074691 
-0.52073217935 0.40266353529 0.75279484239 -0.37953193158 0.47287257137 0.7952025177 -0.39177063184 0.48347027842 0.78279771456 
-0.49888177429 -0.33105970919 0.80094721688 -0.35810196611 -0.46125018581 0.81179507756 -0.085882180588 -0.61816351514 0.78134379092 
-0.0018346704604 -0.6080675021 0.79388320732 -0.043720171154 -0.60201607821 0.79728613948 -0.37622886232 0.46189487329 0.80318426851 
-0.093619032252 0.52367255671 0.84676001922 -0.10833620845 -0.62425347986 0.77367361259 -0.025196934005 -0.60513390048 0.79572487519 
-0.55532831466 -0.063620438828 0.82919412848 0.075444090458 -0.51961789062 0.8510613591 0.15632301136 -0.48105021584 0.86264349876 
0.065670380404 -0.52667210201 0.84752811051 0.45223022831 0.25381149984 0.85502487868 -0.02200452682 -0.54146317762 0.84043645095 
0.016374530376 -0.48165712635 0.87620676064 -0.068641270858 -0.46959165048 0.88021137106 -0.55545780915 -0.59853263109 0.5772567122 
-0.45682488194 0.37034667853 0.808798099 -0.082339470111 -0.5242796093 0.84755595858 0.0031569242293 -0.51003066299 0.86015042675 
-0.10125504823 -0.51674978577 0.85012768107 -0.017038712455 0.49537145799 0.86851413396 -0.16054663726 0.47068014044 0.86757419432 
0.50915379705 0.047011768528 0.85939065888 0.46113775252 -0.075338120617 0.88412450525 0.51067893926 0.029740772904 0.85925695076 
0.010575328278 -0.57897667904 0.81527551635 0.020173303646 -0.59137984125 0.80614075768 0.03647383812 -0.60313960209 0.79680127982 
0.23414382558 -0.55755903569 0.79643241437 0.41901474666 -0.44389134356 0.79207772169 0.44492845257 -0.27570532271 0.85207115145 
0.47084679759 0.084293940402 0.87817869754 0.050931083383 -0.60526910565 0.79438991339 0.14011751936 -0.51638206442 0.84481752131 
0.15135533142 -0.54701680558 0.82332507435 0.51927412765 -0.17232318532 0.83705382154 -0.50721732127 -0.32422674396 0.79850335473 
0.25384532486 0.43426219701 0.86427940812 0.18751366329 0.395139522 0.8992793694 0.11907563573 0.35854941644 0.9258851489 
-0.0056503907047 0.45369686217 0.89113816569 -0.29193486698 -0.40534528209 0.8662962748 -0.25403694253 -0.56416377663 0.78561088649 
-0.39932128387 -0.38682213171 0.83121065361 -0.36223767773 -0.39865622555 0.84253016484 0.13519876616 0.37438802305 0.91736301529 
0.093516717237 0.5208211221 0.84852812704 0.55116207769 -0.23360114539 0.8010311286 0.45777892055 -0.15691491461 0.87510923288 
-0.75597069547 0.11200079448 0.64495281194 -0.7068543689 0.087241636106 0.70195854443 -0.60461250229 0.45003699676 0.65719892241 
-0.56921159853 0.21398701955 0.79385622852 -0.48470552124 0.18261254997 0.85540236981 -0.45857318317 0.16393235751 0.87340529987 
0.20210152588 -0.47925642714 0.85408913486 0.24107302063 -0.48323004407 0.84164869348 0.20987651315 -0.48257225894 0.85033867613 
0.501022319 -0.21729898251 0.83770984718 0.34078874515 -0.33354398111 0.87898318746 -0.27415652299 -0.60032064513 0.7513010874 
0.073189197552 -0.54736947624 0.83368459135 0.093879705238 -0.55834720368 0.82427847302 0.078022968489 -0.55801768026 0.82615294281 
-0.32505093094 0.44871164007 0.83246606919 -0.20866260574 0.58653801208 0.78258103564 -0.31090670202 0.42534889097 0.84995020065 
-0.18057736043 0.49839447124 0.84793559186 0.44006958792 -0.049142537215 0.89661796147 -0.379097723 0.51804708688 0.7667542841 
-0.33966132874 0.51498285893 0.78703420305 -0.46017857056 0.28639223138 0.84036609463 -0.4090709598 0.24627082253 0.87864192469 
-0.036513517035 -0.58585686882 0.80959155895 0.023540739669 -0.60231678144 0.79790997511 0.054810419604 -0.55612379784 0.82929014186 
0.27632747231 -0.51000613523 0.814577725 -0.47554425778 0.17848775992 0.8613940901 0.49604331148 0.033877930917 0.86763662839 
0.54110531531 0.055059315405 0.83915046894 0.06829471856 0.37131449734 0.92599210336 -0.15926037246 0.45948922966 0.8737881789 
0.039768750024 0.44083285375 0.89670777936 -0.18814791118 0.46396414612 0.86564290249 -0.39674342733 0.43927753581 0.8059962155 
-0.15033365476 0.49397855417 0.85637899336 0.26170666946 0.32131258474 0.91009221623 0.21468557666 0.41558913604 0.88385280063 
0.0046599360508 0.44664814764 0.89469755627 -0.32337684561 -0.52153439851 0.78957538392 0.167040354 -0.50230052102 0.84840539055 
0.14198322335 -0.52492436736 0.83922295777 0.030427512217 -0.58040294965 0.81376076493 -0.4366735996 0.19000027098 0.87932705203 
0.33687422698 -0.36073712077 0.86970367649 -0.52759925531 -0.034265278836 0.84880204786 -0.49504099103 -0.16112162884 0.85379988166 
-0.48926560959 -0.14587784062 0.85984813711 -0.042483295195 -0.56325216565 0.82519220035 -0.18522341288 -0.6263649428 0.75720489021 
-0.2097928083 -0.60168813836 0.77068694146 -0.0024412219708 -0.53771234536 0.84312482711 -0.038208881234 -0.57355425984 0.81827598792 
0.54028977254 0.15088284814 0.82784136634 -0.48862376452 -0.16986974287 0.85579850853 -0.091859539923 0.52801175003 0.84425435549 
-0.13454277807 0.51316961399 0.84767634634 0.090726550583 0.50440547433 0.85868726 -0.50372085225 0.049378887561 0.86245407326 
-0.34894500406 0.033164025422 0.93655620843 -0.39133356694 0.043911578355 0.91920063788 -0.37911349765 0.10550355104 0.91931602652 
0.12678939496 0.40239358593 0.90664428048 0.145242525 0.41532892962 0.89800138594 0.24655810921 0.37841756883 0.89219350053 
0.22920022445 0.40959068013 0.88300777565 0.080348487532 -0.55226862355 0.82978520594 0.087299634427 -0.49958737397 0.86185336896 
-0.66708583512 -0.47735091921 0.57195505812 -0.63753465106 -0.59852302318 0.48509768029 -0.44153748394 -0.66834778834 0.59862833553 
0.26633832505 -0.49416722106 0.82756429009 -0.58865513194 -0.58029679335 0.56279727014 0.016403017582 0.46240246083 0.88651841788 
0.10419081827 0.41857707825 0.90218484966 0.073032172645 0.42211967263 0.90359353901 -0.0060924423355 0.46844653139 0.8834708424 
-0.10130795912 -0.59095385483 0.80031883577 -0.10423033685 -0.59651960545 0.79580173234 -0.12283775664 -0.5967901446 0.7929390953 
-0.19984664824 -0.47091700325 0.85924297683 -0.26532901781 -0.44018631658 0.85780913903 -0.079176067978 -0.61689014431 0.78305663915 
-0.18714271717 -0.63550077573 0.74907701037 -0.24762977815 -0.6594681669 0.70977547846 -0.19831127536 -0.68870157758 0.69739714302 
-0.11415404747 -0.63032414146 0.76789343671 0.1207785306 -0.57725057822 0.80758548556 0.2074476437 -0.48565973058 0.84917613086 
-0.20215370027 -0.56528272542 0.79974328494 -0.29645059768 -0.49498275445 0.81676747972 -0.18455868929 -0.56685938282 0.80287516484 
-0.12690762935 -0.56581751764 0.81470546232 -0.53257521711 -0.090837428435 0.84149402833 -0.4939185241 -0.16871775779 0.85298230331 
-0.52828562116 -0.13562120109 0.83816537288 -0.49042526932 -0.16528441386 0.85566589143 -0.47916621033 -0.15377679177 0.86414839073 
-0.5248151655 -0.17545219704 0.83293791402 -0.11939885548 -0.47760274819 0.87042491246 -0.54648352943 -0.16375011433 0.82130484725 
-0.39327598942 -0.28654680875 0.87362745066 -0.39045666497 -0.26817374215 0.88069656341 -0.47211928614 -0.2016241022 0.85816729201 
-0.48635539203 -0.1731934383 0.85642423224 -0.39240951574 -0.24750335521 0.8858650355 -0.29081319095 -0.37626040695 0.87969073778 
-0.38872190803 -0.28911499455 0.87481872302 0.28080144797 -0.45707404945 0.84393948843 0.20308729498 -0.60671915733 0.76853589034 
0.31729233324 0.1400652951 0.93792712317 0.33487682477 0.19235752652 0.92241861116 0.34996827325 0.15807561556 0.92332784399 
0.33257819994 0.19880907522 0.92188214677 -0.77076791287 0.025266622478 0.63661481469 -0.23648448895 0.46608072714 0.85255137222 
-0.43399080545 -0.31723786321 0.84321534553 0.26383284636 -0.44499293528 0.85578824292 -0.4250741059 -0.4314489236 0.79571592344 
0.011614796651 0.51099708275 0.85950397202 -0.54104922813 -0.10489788363 0.83442325396 -0.6355926081 0.0924541193 0.76646870278 
-0.61366849672 -0.0087933097983 0.7895148218 0.36577864472 -0.37369190007 0.85238509307 0.45026996553 -0.26655077934 0.85217817396 
-0.60314358262 -0.084588782992 0.7931346396 -0.59396436371 -0.081784809668 0.80032342184 -0.6216197244 -0.11649039528 0.77460887294 
-0.56775537052 -0.09383733934 0.81783151871 0.35669799836 0.189836005 0.91472882821 -0.084180978675 -0.57682806452 0.81251642864 
-0.56094249192 -0.11030524268 0.82047320139 -0.50172993595 -0.15748225605 0.85056828674 -0.15134836958 -0.49567568303 0.85521885402 
-0.12856794185 -0.5242945994 0.8417751822 -0.060574417646 -0.5370907534 0.8413466958 -0.11491853917 -0.49937094533 0.85873301341 
-0.56412194596 -0.10234729719 0.81932378267 0.30848113969 0.2929939956 0.90498282028 0.38960666328 0.20560720567 0.89773733626 
-0.21302479704 -0.4107653029 0.88650566934 -0.52103788509 -0.17798261006 0.83477045517 -0.17277297018 -0.38873677926 0.90500453989 
0.47144077449 -0.10578899009 0.87552971721 0.50390154423 -0.11811747999 0.85564682822 0.52347795401 -0.14108985085 0.84027643407 
-0.26009500887 0.49234200083 0.83063225351 -0.48288108861 0.034504788016 0.87500587076 -0.46475402762 0.46242365808 0.75509473197 
-0.48702448694 0.46021591234 0.74229944304 -0.40669627994 0.5012562669 0.76376717052 0.46627023105 0.19329957262 0.86326551354 
0.39716821775 0.19970277271 0.89575454751 0.47342629607 0.14566763985 0.86870505978 0.092362192349 -0.53836839614 0.83763279273 
-0.020723327191 -0.5544227393 0.83197714504 -0.13700132056 -0.57099403738 0.80944205935 -0.56220605603 -0.33283728906 0.75706254007 
-0.56814606169 -0.44344617292 0.69322834932 -0.46332546556 -0.56477405899 0.68290539261 -0.5592650179 -0.55497382541 0.61581384595 
0.013696589101 -0.53643203449 0.84383237424 -0.61041702507 -0.16255310928 0.77522096345 -0.45159119447 0.0075184867864 0.89219328928 
-0.53059834634 0.3521073415 0.77102906231 -0.31644506561 -0.62855602043 0.71047860604 -0.5110051725 -0.52644682066 0.6795053044 
-0.15814627302 -0.60777214703 0.7782048404 -0.17374699525 -0.57006646077 0.80301694375 -0.50970455221 0.42533853848 0.74785586655 
-0.67075110532 0.32381503396 0.66726065259 -0.23704660483 -0.59951130595 0.76445739004 -0.18033361877 -0.60277216578 0.77726797316 
-0.20843346271 -0.61037715737 0.76419579781 -0.16706293456 -0.61046805271 0.77422137178 -0.18987357089 -0.60971625537 0.76954149662 
-0.058009970542 -0.63817672103 0.76770131956 -0.093477887895 -0.64367867365 0.75956543468 0.0053846613167 -0.67572136046 0.73713746917 
-0.67323012114 0.16027188929 0.72185464291 -0.66784297902 -0.059106516774 0.74195159886 -0.70660503661 0.2768098167 0.65121858666 
-0.67433588093 -0.08013298233 0.73406391059 -0.64585991274 -0.007394500427 0.76342012973 -0.72531633814 0.039438248184 0.68728511857 
0.14775523827 -0.50712069533 0.84911541614 0.13200667567 -0.49680857457 0.85776190042 -0.39951398976 -0.28962924206 0.86977208171 
-0.26368767731 -0.42851641519 0.86420049222 -0.29386584488 -0.39622225439 0.86985676426 -0.30916258148 -0.37621127893 0.8734320648 
-0.65862535174 -0.13270475242 0.74067678155 0.13639523459 -0.55041240446 0.82367622583 0.0036118849695 -0.6560091195 0.75474432056 
0.095737795775 -0.56102010441 0.82224735749 -0.13787978493 -0.63081824756 0.76358202143 -0.12932939626 -0.63513312008 0.76149840909 
-0.044248910074 -0.65132359988 0.75750881328 0.15176138938 -0.61923592766 0.77039947208 0.13063884757 -0.61139201807 0.78046991726 
0.11804332566 -0.65254755853 0.74849679834 -0.0073484553449 -0.63135887295 0.77545597796 -0.035468125786 -0.7052749329 0.70804610095 
-0.66116146524 0.4424632962 0.60588096884 -0.61558315428 0.3729652283 0.69422929832 0.38502151371 -0.44499256154 0.80854193098 
0.20390230388 -0.6130310234 0.76329340022 -0.6673405748 -0.32495170709 0.67012158993 -0.64686044334 -0.19716474999 0.73668013968 
-0.67131347505 -0.17565114585 0.72005895119 -0.53168666278 0.077751516817 0.84336468639 -0.51826425206 -0.22092469427 0.82619274052 